

     ************************************************************************
     *************** Dalton - An Electronic Structure Program ***************
     ************************************************************************

    This is output from DALTON release Dalton2018.alpha (2018)
         ( Web site: http://daltonprogram.org )

   ----------------------------------------------------------------------------

    NOTE:
     
    Dalton is an experimental code for the evaluation of molecular
    properties using (MC)SCF, DFT, CI, and CC wave functions.
    The authors accept no responsibility for the performance of
    the code or for the correctness of the results.
     
    The code (in whole or part) is provided under a licence and
    is not to be reproduced for further distribution without
    the written permission of the authors or their representatives.
     
    See the home page "http://daltonprogram.org" for further information.
     
    If results obtained with this code are published,
    the appropriate citations would be both of:
     
       K. Aidas, C. Angeli, K. L. Bak, V. Bakken, R. Bast,
       L. Boman, O. Christiansen, R. Cimiraglia, S. Coriani,
       P. Dahle, E. K. Dalskov, U. Ekstroem,
       T. Enevoldsen, J. J. Eriksen, P. Ettenhuber, B. Fernandez,
       L. Ferrighi, H. Fliegl, L. Frediani, K. Hald, A. Halkier,
       C. Haettig, H. Heiberg, T. Helgaker, A. C. Hennum,
       H. Hettema, E. Hjertenaes, S. Hoest, I.-M. Hoeyvik,
       M. F. Iozzi, B. Jansik, H. J. Aa. Jensen, D. Jonsson,
       P. Joergensen, J. Kauczor, S. Kirpekar,
       T. Kjaergaard, W. Klopper, S. Knecht, R. Kobayashi, H. Koch,
       J. Kongsted, A. Krapp, K. Kristensen, A. Ligabue,
       O. B. Lutnaes, J. I. Melo, K. V. Mikkelsen, R. H. Myhre,
       C. Neiss, C. B. Nielsen, P. Norman, J. Olsen,
       J. M. H. Olsen, A. Osted, M. J. Packer, F. Pawlowski,
       T. B. Pedersen, P. F. Provasi, S. Reine, Z. Rinkevicius,
       T. A. Ruden, K. Ruud, V. Rybkin, P. Salek, C. C. M. Samson,
       A. Sanchez de Meras, T. Saue, S. P. A. Sauer,
       B. Schimmelpfennig, K. Sneskov, A. H. Steindal,
       K. O. Sylvester-Hvid, P. R. Taylor, A. M. Teale,
       E. I. Tellgren, D. P. Tew, A. J. Thorvaldsen, L. Thoegersen,
       O. Vahtras, M. A. Watson, D. J. D. Wilson, M. Ziolkowski
       and H. Agren,
       "The Dalton quantum chemistry program system",
       WIREs Comput. Mol. Sci. 2014, 4:269–284 (doi: 10.1002/wcms.1172)
     
    and
     
       Dalton, a Molecular Electronic Structure Program,
       Release Dalton2018.alpha (2018), see http://daltonprogram.org
   ----------------------------------------------------------------------------

    Authors in alphabetical order (major contribution(s) in parenthesis):

  Kestutis Aidas,           Vilnius University,           Lithuania   (QM/MM)
  Celestino Angeli,         University of Ferrara,        Italy       (NEVPT2)
  Keld L. Bak,              UNI-C,                        Denmark     (AOSOPPA, non-adiabatic coupling, magnetic properties)
  Vebjoern Bakken,          University of Oslo,           Norway      (DALTON; geometry optimizer, symmetry detection)
  Radovan Bast,             UiT The Arctic U. of Norway,  Norway      (DALTON installation and execution frameworks)
  Pablo Baudin,             University of Valencia,       Spain       (Cholesky excitation energies)
  Linus Boman,              NTNU,                         Norway      (Cholesky decomposition and subsystems)
  Ove Christiansen,         Aarhus University,            Denmark     (CC module)
  Renzo Cimiraglia,         University of Ferrara,        Italy       (NEVPT2)
  Sonia Coriani,            University of Trieste,        Italy       (CC module, MCD in RESPONS)
  Janusz Cukras,            University of Trieste,        Italy       (MChD in RESPONS)
  Paal Dahle,               University of Oslo,           Norway      (Parallelization)
  Erik K. Dalskov,          UNI-C,                        Denmark     (SOPPA)
  Thomas Enevoldsen,        Univ. of Southern Denmark,    Denmark     (SOPPA)
  Janus J. Eriksen,         Aarhus University,            Denmark     (Polarizable embedding model, TDA)
  Rasmus Faber,             University of Copenhagen,     Denmark     (Vib.avg. NMR with SOPPA, parallel AO-SOPPA)
  Berta Fernandez,          U. of Santiago de Compostela, Spain       (doublet spin, ESR in RESPONS)
  Lara Ferrighi,            Aarhus University,            Denmark     (PCM Cubic response)
  Heike Fliegl,             University of Oslo,           Norway      (CCSD(R12))
  Luca Frediani,            UiT The Arctic U. of Norway,  Norway      (PCM)
  Bin Gao,                  UiT The Arctic U. of Norway,  Norway      (Gen1Int library)
  Christof Haettig,         Ruhr-University Bochum,       Germany     (CC module)
  Kasper Hald,              Aarhus University,            Denmark     (CC module)
  Asger Halkier,            Aarhus University,            Denmark     (CC module)
  Frederik Beyer Hansen,    University of Copenhagen,     Denmark     (Parallel AO-SOPPA)
  Erik D. Hedegaard,        Univ. of Southern Denmark,    Denmark     (Polarizable embedding model, QM/MM)
  Hanne Heiberg,            University of Oslo,           Norway      (geometry analysis, selected one-electron integrals)
  Trygve Helgaker,          University of Oslo,           Norway      (DALTON; ABACUS, ERI, DFT modules, London, and much more)
  Alf Christian Hennum,     University of Oslo,           Norway      (Parity violation)
  Hinne Hettema,            University of Auckland,       New Zealand (quadratic response in RESPONS; SIRIUS supersymmetry)
  Eirik Hjertenaes,         NTNU,                         Norway      (Cholesky decomposition)
  Pi A. B. Haase,           University of Copenhagen,     Denmark     (Triplet AO-SOPPA)
  Maria Francesca Iozzi,    University of Oslo,           Norway      (RPA)
  Christoph Jacob           TU Braunschweig               Germany     (Frozen density embedding model)
  Brano Jansik              Technical Univ. of Ostrava    Czech Rep.  (DFT cubic response)
  Hans Joergen Aa. Jensen,  Univ. of Southern Denmark,    Denmark     (DALTON; SIRIUS, RESPONS, ABACUS modules, London, and much more)
  Dan Jonsson,              UiT The Arctic U. of Norway,  Norway      (cubic response in RESPONS module)
  Poul Joergensen,          Aarhus University,            Denmark     (RESPONS, ABACUS, and CC modules)
  Maciej Kaminski,          University of Warsaw,         Poland      (CPPh in RESPONS)
  Joanna Kauczor,           Linkoeping University,        Sweden      (Complex polarization propagator (CPP) module)
  Sheela Kirpekar,          Univ. of Southern Denmark,    Denmark     (Mass-velocity & Darwin integrals)
  Wim Klopper,              KIT Karlsruhe,                Germany     (R12 code in CC, SIRIUS, and ABACUS modules)
  Stefan Knecht,            ETH Zurich,                   Switzerland (Parallel CI and MCSCF)
  Rika Kobayashi,           Australian National Univ.,    Australia   (DIIS in CC, London in MCSCF)
  Henrik Koch,              NTNU,                         Norway      (CC module, Cholesky decomposition)
  Jacob Kongsted,           Univ. of Southern Denmark,    Denmark     (Polarizable embedding model, QM/MM)
  Andrea Ligabue,           University of Modena,         Italy       (CTOCD, AOSOPPA)
  Nanna H. List             Univ. of Southern Denmark,    Denmark     (Polarizable embedding model)
  Ola B. Lutnaes,           University of Oslo,           Norway      (DFT Hessian)
  Juan I. Melo,             University of Buenos Aires,   Argentina   (LRESC, Relativistic Effects on NMR Shieldings)
  Kurt V. Mikkelsen,        University of Copenhagen,     Denmark     (MC-SCRF and QM/MM)
  Rolf H. Myhre,            NTNU,                         Norway      (Cholesky, subsystems and ECC2)
  Christian Neiss,          Univ. Erlangen-Nuernberg,     Germany     (CCSD(R12))
  Christian B. Nielsen,     University of Copenhagen,     Denmark     (QM/MM)
  Patrick Norman,           Linkoeping University,        Sweden      (Cubic response and complex frequency response in RESPONS)
  Jeppe Olsen,              Aarhus University,            Denmark     (SIRIUS CI/density modules)
  Jogvan Magnus H. Olsen,   Univ. of Southern Denmark,    Denmark     (Polarizable embedding model, QM/MM)
  Anders Osted,             Copenhagen University,        Denmark     (QM/MM)
  Martin J. Packer,         University of Sheffield,      UK          (SOPPA)
  Filip Pawlowski,          Kazimierz Wielki University,  Poland      (CC3)
  Morten N. Pedersen,       Univ. of Southern Denmark,    Denmark     (Polarizable embedding model)
  Thomas B. Pedersen,       University of Oslo,           Norway      (Cholesky decomposition)
  Patricio F. Provasi,      University of Northeastern,   Argentina   (Analysis of coupling constants in localized orbitals)
  Zilvinas Rinkevicius,     KTH Stockholm,                Sweden      (open-shell DFT, ESR)
  Elias Rudberg,            KTH Stockholm,                Sweden      (DFT grid and basis info)
  Torgeir A. Ruden,         University of Oslo,           Norway      (Numerical derivatives in ABACUS)
  Kenneth Ruud,             UiT The Arctic U. of Norway,  Norway      (DALTON; ABACUS magnetic properties and much more)
  Pawel Salek,              KTH Stockholm,                Sweden      (DALTON; DFT code)
  Claire C. M. Samson       University of Karlsruhe       Germany     (Boys localization, r12 integrals in ERI)
  Alfredo Sanchez de Meras, University of Valencia,       Spain       (CC module, Cholesky decomposition)
  Trond Saue,               Paul Sabatier University,     France      (direct Fock matrix construction)
  Stephan P. A. Sauer,      University of Copenhagen,     Denmark     (SOPPA(CCSD), SOPPA prop., AOSOPPA, vibrational g-factors)
  Andre S. P. Gomes         CNRS/Universite de Lille      France      (Frozen density embedding model)
  Bernd Schimmelpfennig,    Forschungszentrum Karlsruhe,  Germany     (AMFI module)
  Kristian Sneskov,         Aarhus University,            Denmark     (Polarizable embedding model, QM/MM)
  Arnfinn H. Steindal,      UiT The Arctic U. of Norway,  Norway      (parallel QM/MM, Polarizable embedding model)
  Casper Steinmann,         Univ. of Southern Denmark,    Denmark     (QFIT, Polarizable embedding model)
  K. O. Sylvester-Hvid,     University of Copenhagen,     Denmark     (MC-SCRF)
  Peter R. Taylor,          VLSCI/Univ. of Melbourne,     Australia   (Symmetry handling ABACUS, integral transformation)
  Andrew M. Teale,          University of Nottingham,     England     (DFT-AC, DFT-D)
  David P. Tew,             University of Bristol,        England     (CCSD(R12))
  Olav Vahtras,             KTH Stockholm,                Sweden      (triplet response, spin-orbit, ESR, TDDFT, open-shell DFT)
  Lucas Visscher            Vrije Universiteit Amsterdam  Netherlands (Frozen density embedding model)
  David J. Wilson,          La Trobe University,          Australia   (DFT Hessian and DFT magnetizabilities)
  Hans Agren,               KTH Stockholm,                Sweden      (SIRIUS module, RESPONS, MC-SCRF solvation model)
 --------------------------------------------------------------------------------

     Date and time (Linux)  : Tue Aug  7 11:49:19 2018
     Host name              : s72p25.deic.sdu.dk                      

 * Work memory size             :  2048000000 = 15.259 gigabytes.

 * Directories for basis set searches:
   1) /work/sdujk/kjellgren/MCsrDFT_triplet/triplet_response/lr
   2) /gpfs/gss1/work/sdujk/kjellgren/programs/dalton/srdft_dalton_intel/basis


Compilation information
-----------------------

 Who compiled             | kjellgren
 Host                     | fe1.deic.sdu.dk
 System                   | Linux-3.10.0-327.36.3.el7.x86_64
 CMake generator          | Unix Makefiles
 Processor                | x86_64
 64-bit integers          | OFF
 MPI                      | ON
 Fortran compiler         | /opt/sys/apps/intel/2018.05/impi_latest/intel64/bi
                          | n/mpiifort
 Fortran compiler version | unknown
 C compiler               | /opt/sys/apps/intel/2018.05/impi_latest/intel64/bi
                          | n/mpiicc
 C compiler version       | unknown
 C++ compiler             | /opt/sys/apps/intel/2018.05/impi_latest/intel64/bi
                          | n/mpiicpc
 C++ compiler version     | unknown
 Static linking           | OFF
 Configuration time       | 2018-07-26 11:12:53.773626

 * MPI parallel run using 24 processes.


   Content of the .dal input file
 ----------------------------------

*DALTON INPUT
.RUN RESPONSE
**INTEGRALS
*TWOINT
.DOSRINTEGRALS
.ERF
 0.4
**WAVE FUNCTIONS
.MCSRDFT
.SRFUN
 SRXPBEGWSS SRCPBEGWSS
*ORBITAL INPUT
.MOSTART
 NEWORB
*OPTIMIZATION
.DETERMINANTS
*CONFIGURATION INPUT
.SYMMETRY
 1
.SPIN MUL
 1
.INACTIVE
 7 1 4 0
.ELECTRONS
 12
.CAS SPACE
 5 2 3 2
**RESPONSE
.MAXRM
 2000
*LINEAR
.SINGLE RESIDUE
.TRIPLET
.ROOTS
 10 0 10 0
.MAX IT
 100
.PRINT
 4
**END OF DALTON INPUT


   Content of the .mol file
 ----------------------------

ATOMBASIS
	 Furan Vertical Excitation Energies
         Alhrichs TZVP
Angstrom Atomtypes=3 Generators=2 X Y Integrals=1.00D-15
Charge=6.0 Atoms=2 Basis=Ahlrichs-TZV Pol 3 0.8
C    0.000000 1.095840 0.348301
C    0.000000 0.714027 -0.963274
Charge=8.0 Atoms=1 Basis=Ahlrichs-TZV Pol 3 1.2
O    0.000000 0.000000 1.164881
Charge=1.0  Atoms=2 Basis=Ahlrichs-VTZ Pol 2 0.8
H    0.000000 2.051058 0.851533
H    0.000000 1.371979 -1.821224


       *******************************************************************
       *********** Output from DALTON general input processing ***********
       *******************************************************************

 --------------------------------------------------------------------------------
   Overall default print level:    0
   Print level for DALTON.STAT:    1

    Parallel calculation using MPI
    AO-direct calculation (in sections where implemented)
    HERMIT 1- and 2-electron integral sections will be executed
    "Old" integral transformation used (limited to max 255 basis functions)
    Wave function sections will be executed (SIRIUS module)
    Dynamic molecular response properties section will be executed (RESPONSE module)
 --------------------------------------------------------------------------------


   ****************************************************************************
   *************** Output of molecule and basis set information ***************
   ****************************************************************************


    The two title cards from your ".mol" input:
    ------------------------------------------------------------------------
 1: 	 Furan Vertical Excitation Energies                                    
 2:          Alhrichs TZVP                                                  
    ------------------------------------------------------------------------

  Coordinates are entered in Angstrom and converted to atomic units.
          - Conversion factor : 1 bohr = 0.52917721 A

  Atomic type no.    1
  --------------------
  Nuclear charge:   6.00000
  Number of symmetry independent centers:    2
  Number of basis sets to read;    1
  The basis set is "Ahlrichs-TZV Pol 3 0.8" from the basis set library.
  Basis set file used for this atomic type with Z =   6 :
     "/gpfs/gss1/work/sdujk/kjellgren/programs/dalton/srdft_dalton_intel/basis/Ahlrichs-TZV"

  Atomic type no.    2
  --------------------
  Nuclear charge:   8.00000
  Number of symmetry independent centers:    1
  Number of basis sets to read;    1
  The basis set is "Ahlrichs-TZV Pol 3 1.2" from the basis set library.
  Basis set file used for this atomic type with Z =   8 :
     "/gpfs/gss1/work/sdujk/kjellgren/programs/dalton/srdft_dalton_intel/basis/Ahlrichs-TZV"

  Atomic type no.    3
  --------------------
  Nuclear charge:   1.00000
  Number of symmetry independent centers:    2
  Number of basis sets to read;    1
  The basis set is "Ahlrichs-VTZ Pol 2 0.8" from the basis set library.
  Basis set file used for this atomic type with Z =   1 :
     "/gpfs/gss1/work/sdujk/kjellgren/programs/dalton/srdft_dalton_intel/basis/Ahlrichs-VTZ"


                         SYMGRP: Point group information
                         -------------------------------

@    Point group: C2v

@  * The irrep name for each symmetry:    1: A1     2: B1     3: B2     4: A2 

   * The point group was generated by:

      Reflection in the yz-plane
      Reflection in the xz-plane

   * Group multiplication table

        |  E   C2z  Oxz  Oyz
   -----+--------------------
     E  |  E   C2z  Oxz  Oyz
    C2z | C2z   E   Oyz  Oxz
    Oxz | Oxz  Oyz   E   C2z
    Oyz | Oyz  Oxz  C2z   E 

   * Character table

        |  E   C2z  Oxz  Oyz
   -----+--------------------
    A1  |   1    1    1    1
    B1  |   1   -1    1   -1
    B2  |   1   -1   -1    1
    A2  |   1    1   -1   -1

   * Direct product table

        | A1   B1   B2   A2 
   -----+--------------------
    A1  | A1   B1   B2   A2 
    B1  | B1   A1   A2   B2 
    B2  | B2   A2   A1   B1 
    A2  | A2   B2   B1   A1 


                                 Isotopic Masses
                                 ---------------

                           C   _1     12.000000
                           C   _2     12.000000
                           C   _1     12.000000
                           C   _2     12.000000
                           O          15.994915
                           H   _1      1.007825
                           H   _2      1.007825
                           H   _1      1.007825
                           H   _2      1.007825

                       Total mass:    68.026215 amu
                       Natural abundance:  95.385 %

 Center-of-mass coordinates (a.u.):    0.000000   -0.000000    0.053288
 Center-of-mass coordinates (Angs):    0.000000   -0.000000    0.028199


  Atoms and basis sets
  --------------------

  Number of atom types :    3
  Total number of atoms:    9

  label    atoms   charge   prim   cont     basis
  ----------------------------------------------------------------------
  C           4    6.0000    34    19      [11s6p1d|5s3p1d]                                   
  O           1    8.0000    34    19      [11s6p1d|5s3p1d]                                   
  H           4    1.0000     8     6      [5s1p|3s1p]                                        
  ----------------------------------------------------------------------
  total:      9   36.0000   202   119
  ----------------------------------------------------------------------
  Spherical harmonic basis used.

  Threshold for neglecting AO integrals:  1.00D-15


  Cartesian Coordinates (a.u.)
  ----------------------------

  Total number of coordinates:   27
  C   / 1 :     1  x   0.0000000000    2  y   2.0708374768    3  z   0.6581934991
  C   / 2 :     4  x   0.0000000000    5  y  -2.0708374768    6  z   0.6581934991
  C   / 1 :     7  x   0.0000000000    8  y   1.3493154759    9  z  -1.8203240433
  C   / 2 :    10  x   0.0000000000   11  y  -1.3493154759   12  z  -1.8203240433
  O       :    13  x   0.0000000000   14  y   0.0000000000   15  z   2.2013060582
  H   / 1 :    16  x   0.0000000000   17  y   3.8759378865   18  z   1.6091641564
  H   / 2 :    19  x   0.0000000000   20  y  -3.8759378865   21  z   1.6091641564
  H   / 1 :    22  x   0.0000000000   23  y   2.5926645592   24  z  -3.4416145723
  H   / 2 :    25  x   0.0000000000   26  y  -2.5926645592   27  z  -3.4416145723


  Symmetry Coordinates
  --------------------

  Number of coordinates in each symmetry:     9    5    9    4

  Symmetry  A1  ( 1)

    1   C     y    [  2  -    5 ]/2
    2   C     z    [  3  +    6 ]/2
    3   C     y    [  8  -   11 ]/2
    4   C     z    [  9  +   12 ]/2
    5   O     z   15
    6   H     y    [ 17  -   20 ]/2
    7   H     z    [ 18  +   21 ]/2
    8   H     y    [ 23  -   26 ]/2
    9   H     z    [ 24  +   27 ]/2

  Symmetry  B1  ( 2)

   10   C     x    [  1  +    4 ]/2
   11   C     x    [  7  +   10 ]/2
   12   O     x   13
   13   H     x    [ 16  +   19 ]/2
   14   H     x    [ 22  +   25 ]/2

  Symmetry  B2  ( 3)

   15   C     y    [  2  +    5 ]/2
   16   C     z    [  3  -    6 ]/2
   17   C     y    [  8  +   11 ]/2
   18   C     z    [  9  -   12 ]/2
   19   O     y   14
   20   H     y    [ 17  +   20 ]/2
   21   H     z    [ 18  -   21 ]/2
   22   H     y    [ 23  +   26 ]/2
   23   H     z    [ 24  -   27 ]/2

  Symmetry  A2  ( 4)

   24   C     x    [  1  -    4 ]/2
   25   C     x    [  7  -   10 ]/2
   26   H     x    [ 16  -   19 ]/2
   27   H     x    [ 22  -   25 ]/2


   Interatomic separations (in Angstrom):
   --------------------------------------

            C   _1      C   _2      C   _1      C   _2      O           H   _1
            ------      ------      ------      ------      ------      ------
 C   _1:    0.000000
 C   _2:    2.191680    0.000000
 C   _1:    1.366020    2.235139    0.000000
 C   _2:    2.235139    1.366020    1.428054    0.000000
 O     :    1.366627    1.366627    2.244745    2.244745    0.000000
 H   _1:    1.079668    3.186881    2.254146    3.307449    2.074856    0.000000
 H   _2:    3.186881    1.079668    3.307449    2.254146    2.074856    4.102116
 H   _1:    2.187028    3.285874    1.081193    2.255549    3.286206    2.757676
 H   _2:    3.285874    2.187028    2.255549    1.081193    3.286206    4.342904

            H   _2      H   _1      H   _2
            ------      ------      ------
 H   _2:    0.000000
 H   _1:    4.342904    0.000000
 H   _2:    2.757676    2.743958    0.000000


  Max    interatomic separation is    4.3429 Angstrom (    8.2069 Bohr)
  between atoms    8 and    7, "H   _1" and "H   _2".

  Min HX interatomic separation is    1.0797 Angstrom (    2.0403 Bohr)

  Min YX interatomic separation is    1.3660 Angstrom (    2.5814 Bohr)


  Bond distances (Angstrom):
  --------------------------

                  atom 1     atom 2       distance
                  ------     ------       --------
  bond distance:  C   _1     C   _1       1.366020
  bond distance:  C   _2     C   _2       1.366020
  bond distance:  C   _2     C   _1       1.428054
  bond distance:  O          C   _1       1.366627
  bond distance:  O          C   _2       1.366627
  bond distance:  H   _1     C   _1       1.079668
  bond distance:  H   _2     C   _2       1.079668
  bond distance:  H   _1     C   _1       1.081193
  bond distance:  H   _2     C   _2       1.081193


  Bond angles (degrees):
  ----------------------

                  atom 1     atom 2     atom 3         angle
                  ------     ------     ------         -----
  bond angle:     C   _1     C   _1     O            110.461
  bond angle:     C   _1     C   _1     H   _1       134.012
  bond angle:     O          C   _1     H   _1       115.527
  bond angle:     C   _2     C   _2     O            110.461
  bond angle:     C   _2     C   _2     H   _2       134.012
  bond angle:     O          C   _2     H   _2       115.527
  bond angle:     C   _1     C   _1     C   _2       106.231
  bond angle:     C   _1     C   _1     H   _1       126.285
  bond angle:     C   _2     C   _1     H   _1       127.484
  bond angle:     C   _2     C   _2     C   _1       106.231
  bond angle:     C   _2     C   _2     H   _2       126.285
  bond angle:     C   _1     C   _2     H   _2       127.484
  bond angle:     C   _1     O          C   _2       106.616




 Principal moments of inertia (u*A**2) and principal axes
 --------------------------------------------------------

   IA      53.330423          0.000000    0.000000    1.000000
   IB      54.978408          0.000000    1.000000    0.000000
   IC     108.308830          1.000000    0.000000    0.000000


 Rotational constants
 --------------------

@    The molecule is planar.

               A                   B                   C

           9476.3735           9192.3180           4666.0924 MHz
            0.316098            0.306623            0.155644 cm-1


@  Nuclear repulsion energy :  160.516303280295 Hartree


  Symmetry Orbitals
  -----------------

  Number of orbitals in each symmetry:          48   16   42   13


  Symmetry  A1 ( 1)

    1     C        1s         1 +    2
    2     C        1s         3 +    4
    3     C        1s         5 +    6
    4     C        1s         7 +    8
    5     C        1s         9 +   10
    6     C        2py       13 -   14
    7     C        2pz       15 +   16
    8     C        2py       19 -   20
    9     C        2pz       21 +   22
   10     C        2py       25 -   26
   11     C        2pz       27 +   28
   12     C        3d1-      31 -   32
   13     C        3d0       33 +   34
   14     C        3d2+      37 +   38
   15     C        1s        39 +   40
   16     C        1s        41 +   42
   17     C        1s        43 +   44
   18     C        1s        45 +   46
   19     C        1s        47 +   48
   20     C        2py       51 -   52
   21     C        2pz       53 +   54
   22     C        2py       57 -   58
   23     C        2pz       59 +   60
   24     C        2py       63 -   64
   25     C        2pz       65 +   66
   26     C        3d1-      69 -   70
   27     C        3d0       71 +   72
   28     C        3d2+      75 +   76
   29     O        1s        77
   30     O        1s        78
   31     O        1s        79
   32     O        1s        80
   33     O        1s        81
   34     O        2pz       84
   35     O        2pz       87
   36     O        2pz       90
   37     O        3d0       93
   38     O        3d2+      95
   39     H        1s        96 +   97
   40     H        1s        98 +   99
   41     H        1s       100 +  101
   42     H        2py      104 -  105
   43     H        2pz      106 +  107
   44     H        1s       108 +  109
   45     H        1s       110 +  111
   46     H        1s       112 +  113
   47     H        2py      116 -  117
   48     H        2pz      118 +  119


  Symmetry  B1 ( 2)

   49     C        2px       11 +   12
   50     C        2px       17 +   18
   51     C        2px       23 +   24
   52     C        3d2-      29 -   30
   53     C        3d1+      35 +   36
   54     C        2px       49 +   50
   55     C        2px       55 +   56
   56     C        2px       61 +   62
   57     C        3d2-      67 -   68
   58     C        3d1+      73 +   74
   59     O        2px       82
   60     O        2px       85
   61     O        2px       88
   62     O        3d1+      94
   63     H        2px      102 +  103
   64     H        2px      114 +  115


  Symmetry  B2 ( 3)

   65     C        1s         1 -    2
   66     C        1s         3 -    4
   67     C        1s         5 -    6
   68     C        1s         7 -    8
   69     C        1s         9 -   10
   70     C        2py       13 +   14
   71     C        2pz       15 -   16
   72     C        2py       19 +   20
   73     C        2pz       21 -   22
   74     C        2py       25 +   26
   75     C        2pz       27 -   28
   76     C        3d1-      31 +   32
   77     C        3d0       33 -   34
   78     C        3d2+      37 -   38
   79     C        1s        39 -   40
   80     C        1s        41 -   42
   81     C        1s        43 -   44
   82     C        1s        45 -   46
   83     C        1s        47 -   48
   84     C        2py       51 +   52
   85     C        2pz       53 -   54
   86     C        2py       57 +   58
   87     C        2pz       59 -   60
   88     C        2py       63 +   64
   89     C        2pz       65 -   66
   90     C        3d1-      69 +   70
   91     C        3d0       71 -   72
   92     C        3d2+      75 -   76
   93     O        2py       83
   94     O        2py       86
   95     O        2py       89
   96     O        3d1-      92
   97     H        1s        96 -   97
   98     H        1s        98 -   99
   99     H        1s       100 -  101
  100     H        2py      104 +  105
  101     H        2pz      106 -  107
  102     H        1s       108 -  109
  103     H        1s       110 -  111
  104     H        1s       112 -  113
  105     H        2py      116 +  117
  106     H        2pz      118 -  119


  Symmetry  A2 ( 4)

  107     C        2px       11 -   12
  108     C        2px       17 -   18
  109     C        2px       23 -   24
  110     C        3d2-      29 +   30
  111     C        3d1+      35 -   36
  112     C        2px       49 -   50
  113     C        2px       55 -   56
  114     C        2px       61 -   62
  115     C        3d2-      67 +   68
  116     C        3d1+      73 -   74
  117     O        3d2-      91
  118     H        2px      102 -  103
  119     H        2px      114 -  115

  Symmetries of electric field:  B1 (2)  B2 (3)  A1 (1)

  Symmetries of magnetic field:  B2 (3)  B1 (2)  A2 (4)


                     .---------------------------------------.
                     | Starting in Integral Section (HERMIT) |
                     `---------------------------------------'



 ***************************************************************************************
 ****************** Output from **INTEGRALS input processing (HERMIT) ******************
 ***************************************************************************************



    *************************************************************************
    ****************** Output from HERMIT input processing ******************
    *************************************************************************


 Default print level:        1

 * Nuclear model: Point charge

 Calculation of one-electron Hamiltonian integrals.

 Center of mass  (bohr):      0.000000000000     -0.000000000000      0.053288155851
 Operator center (bohr):      0.000000000000      0.000000000000      0.000000000000
 Gauge origin    (bohr):      0.000000000000      0.000000000000      0.000000000000
 Dipole origin   (bohr):      0.000000000000      0.000000000000      0.000000000000


  Set-up from HR2INP:
  -------------------

 Print level in TWOINT:    1

 DFT-hybrid : Using a Erf type two-elec. operator
              with the coupling parameter :    0.40000
 * Direct calculation of Fock matrices in AO-basis.
 * Program controlled screening thresholds used for this.
 * Separate density screening of Coulomb integral batches
 * Separate density screening of exchange integral batches


     ************************************************************************
     ************************** Output from HERINT **************************
     ************************************************************************



                      Nuclear contribution to dipole moments
                      --------------------------------------

                 au               Debye          C m (/(10**-30)

      z     -0.00001890        -0.00004803        -0.00016022


  Total CPU  time used in HERMIT:   0.07 seconds
  Total wall time used in HERMIT:   0.07 seconds


                        .----------------------------------.
                        | End of Integral Section (HERMIT) |
                        `----------------------------------'



                   .--------------------------------------------.
                   | Starting in Wave Function Section (SIRIUS) |
                   `--------------------------------------------'


 CI program in use: SIRIUS-CI
* Read MO coefficients from SIRIUS.RST with label "NEWORB  " and header info:  2Aug18  (CNOORB)

 SETCI, core memory needed for CI:
 LCINDX =       45721
 LACIMX =       65990
 LBCIMX =           0

 Number of determinants:        213640

 Number of configurations:      213640

 Time used in SETCI :      0.66s

 **********************************************************************
 *SIRIUS* a direct, restricted step, second order MCSCF program       *
 **********************************************************************

 
     Date and time (Linux)  : Tue Aug  7 11:49:19 2018
     Host name              : s72p25.deic.sdu.dk                      

 Title lines from ".mol" input file:
     	 Furan Vertical Excitation Energies                                    
              Alhrichs TZVP                                                  

 Print level on unit LUPRI =   2 is   0
 Print level on unit LUW4  =   2 is   5

@    MC-SCF optimization.

@    Multi-configurational response calculation.
@              Type: complete active space calculation (CAS).
 Fock matrices are calculated directly and in parallel without use of integrals on disk.

 Initial molecular orbitals are obtained according to
 ".MOSTART NEWORB" input option

     Wave function specification
     ============================
@    Wave function type        --- MC-SCF ---
@    Number of closed shell electrons          24
@    Number of electrons in active shells      12
@    Total charge of the molecule               0

@    Spin multiplicity and 2 M_S                1         0
@    Total number of symmetries                 4 (point group: C2v)
@    Reference state symmetry                   1 (irrep name : A1 )

@    This is a lrWFT-srDFT calculation using the 
@      SRXPBEGWSS short range exchange functional
@      SRCPBEGWSS short range correlation functional

@    sr-DFT and exact sr-HF exchange weights:    1.000000    0.000000

     Orbital specifications
     ======================
@    Abelian symmetry species          All |    1    2    3    4
@                                          |  A1   B1   B2   A2 
                                       --- |  ---  ---  ---  ---
@    Inactive orbitals                  12 |    7    1    4    0
@    Active orbitals                    12 |    5    2    3    2
@    Secondary orbitals                 95 |   36   13   35   11
@    Total number of orbitals          119 |   48   16   42   13
@    Number of basis functions         119 |   48   16   42   13

     Optimization information
     ========================
@    Number of determinants              213640
@    Number of orbital rotations            787
     ------------------------------------------
@    Total number of variables           214427

     Maximum number of macro iterations      25
     Maximum number of micro iterations     600
     Threshold for MCSCF gradient      1.00D-05
     Number of initial trial vectors          1
     Number of initial CI iterations         20
     Number of simultaneous trial vectors     1

@    This calculation converges to the lowest state for the specified symmetry and spin species.

     Maximum number of NEO/NR iterations  24


        SIRIUS MC-srDFT optimization (SIROPT)
 ================================================


 Fock matrix screening setting for SIRCNO: IFTHRS =    9

INFO : spin density ignored in initial CI iterations.


 ----- Output from SIRIUS CI module (CICTL) -----




---> (Re)generating AOTWOINT
---> and (re)generating AOSR2INT


     ************************************************************************
     ************************** Output from HERINT **************************
     ************************************************************************


 Threshold for neglecting two-electron integrals:  1.00D-15
 HERMIT - Number of two-electron integrals written:     6705797 ( 26.3% )
 HERMIT - Megabytes written:                             76.789

  Time used in TWOINT     is       0.94 seconds

 Threshold for neglecting two-electron integrals:  1.00D-15
 HERMIT - Number of two-electron integrals written:     6706227 ( 26.3% )
 HERMIT - Megabytes written:                             76.796

  Time used in TWOINT short-range is       1.18 seconds

 2-el. integral transformation level 0: Total CPU and WALL times (sec)       2.890       2.888

 (CIST1)  4 lowest diagonal elements:

 Element no. Config.no.    Active energy      Total energy

         1 :      57095    -58.7510312631   -297.2472063305
         2 :      57096    -58.4144220776   -296.9105971449
         3 :      57319    -58.4144220776   -296.9105971449
         4 :      57105    -58.3577806058   -296.8539556731


 Convergence threshold for CI optimization :     0.00000500



 *** Reached maximum number of CI iterations:   20
              1 CI roots are not converged.

SR 0-el. energy for input .STATE    1
-------------------------------------

   SR core    Hartree energy   :          57.594996425628
 - SR valence Hartree energy   :          -6.638808134953
 + SR Exchange-correlation     :         -24.534593755987
 - SR Exchange-correlation pot.:           5.389850210477

 = Total eff. SR 0-el. energy  :          31.811444745165

CI-DFT energy for state no.    1
-------------------------------------

 SR eff. 1-el. energy          :          36.825273284216
 SR total Hartree energy       :          93.171311785368
 SR eff. total DFT energy      :          68.636718029381
 LR total CI  energy           :        -298.495837300070

 Total CI-DFT energy           :        -229.859119270689

 Decomposition of the auxiliary CI-srDFT energy:
 ELRCI        :        -298.495837300070
 EMYDFTAUX    :         116.066779997159
 ESRDV        :          36.825273284216
 POTNUC       :         160.516303280295
 

 Auxiliary CI-srDFT energy for root 1:      -306.120087298991


@ Final CI energies and residuals in symmetry 1 (irrep A1 )
@    1     -229.859119270689149       1.05D-03

   --- OUTPUT FROM SIRCNO     Keyword = FD+NO 


***  INFO  GETGAB: GABSRXXX not found on AOPROPER. Regenerating.

   Ex-sr + Ec-sr                        -24.1733554851
 + EJsr = sr Coulomb energy              90.5131072822
 = Total E(srDFT)                        66.3397517970


 Corrections needed for correct CI energy evaluation:
 - 0.5 Tr(Vxc-sr Dcore)                  13.9975338384
 -     Tr(Vxc-sr Dval)                    4.9716754404
 - 0.5 Tr( (Jsr+HFXFAC*Ksr) Dval )      -19.3872739941

 Occupations of CAS natural orbitals:

 Symmetry  1 ( irrep A1  in C2v )

   1.995610897   1.997953321   0.002449798   0.003685764   0.001657176

 Symmetry  2 ( irrep B1  in C2v )

   1.985827605   0.019035572

 Symmetry  3 ( irrep B2  in C2v )

   1.998478565   1.996070362   0.004095734

 Symmetry  4 ( irrep A2  in C2v )

   1.983276545   0.011858660


 --- MACRO ITERATION  1 ---
 --------------------------

 2-el. integral transformation level 3: Total CPU and WALL times (sec)       1.141       1.139

 Fock matrix screening setting for this macro iteration: 10^( -9)

   Ex-sr + Ec-sr                        -24.1733554851
 + EJsr = sr Coulomb energy              90.5131072822
 = Total E(srDFT)                        66.3397517970


 Corrections needed for correct CI energy evaluation:
 - 0.5 Tr(Vxc-sr Dcore)                  13.9975338384
 -     Tr(Vxc-sr Dval)                    4.9716754404
 - 0.5 Tr( (Jsr+HFXFAC*Ksr) Dval )      -19.3872739941

 Total MC-srDFT energy    :          -229.737345004904626  (MACRO    1)

 - Nuclear repulsion      :           160.516303280294949
 - Inactive energy        :          -341.884178902723420
 - Active energy          :           -23.778049182094083
 - srDFT effective energy :           -24.591420200382075

 Norm of total gradient   :             0.442606459005
 -    of CI gradient      :             0.286234135693
 -    of orbital gradient :             0.337595167496
      Virial theorem: -V/T =      2.298512
@    MULPOP   C   _1 -0.34; C   _2 -0.34; C   _1  0.26; C   _2  0.26; O      -0.27; H   _1  0.13; H   _2  0.13; H   _1  0.09; H   _2  0.09; 

 Residual norm when dim(red L) =   6
 NEO root     CSF        orbital          total
    1     0.07173827     0.02894976     0.07735934 converged

 (NEONEX) NEO vector is converged.

   --- OUTPUT FROM SIRCNO     Keyword = FD+NO 


   Ex-sr + Ec-sr                        -24.2794426462
 + EJsr = sr Coulomb energy              91.3819684440
 = Total E(srDFT)                        67.1025257978


 Corrections needed for correct CI energy evaluation:
 - 0.5 Tr(Vxc-sr Dcore)                  13.8904883030
 -     Tr(Vxc-sr Dval)                    5.3277704266
 - 0.5 Tr( (Jsr+HFXFAC*Ksr) Dval )      -21.1681050876

 Occupations of CAS natural orbitals:

 Symmetry  1 ( irrep A1  in C2v )

   1.995892216   1.997628721   0.002605125   0.003972797   0.001323808

 Symmetry  2 ( irrep B1  in C2v )

   1.989059646   0.017331390

 Symmetry  3 ( irrep B2  in C2v )

   1.998612505   1.996350976   0.003618888

 Symmetry  4 ( irrep A2  in C2v )

   1.984241076   0.009362853


 --- MACRO ITERATION  2 ---
 --------------------------

 2-el. integral transformation level 3: Total CPU and WALL times (sec)       1.105       1.103

 Fock matrix screening setting for this macro iteration: 10^( -9)

   Ex-sr + Ec-sr                        -24.2794426462
 + EJsr = sr Coulomb energy              91.3819684440
 = Total E(srDFT)                        67.1025257978


 Corrections needed for correct CI energy evaluation:
 - 0.5 Tr(Vxc-sr Dcore)                  13.8904883030
 -     Tr(Vxc-sr Dval)                    5.3277704266
 - 0.5 Tr( (Jsr+HFXFAC*Ksr) Dval )      -21.1681050876

 Total MC-srDFT energy    :          -229.747077869487782  (MACRO    2)

 - Nuclear repulsion      :           160.516303280294949
 - Inactive energy        :          -339.707438137504710
 - Active energy          :           -24.326654008012436
 - srDFT effective energy :           -26.229289004265585

 Norm of total gradient   :             0.498292462143
 -    of CI gradient      :             0.259093803811
 -    of orbital gradient :             0.425635734701
      Virial theorem: -V/T =      2.281040
@    MULPOP   C   _1 -0.12; C   _2 -0.12; C   _1  0.26; C   _2  0.26; O      -0.89; H   _1  0.18; H   _2  0.18; H   _1  0.12; H   _2  0.12; 

 (SIRSTP) Energy difference;
 actual, predicted and ratio:  -0.009732864583157  -0.043115159067929    0.225741

 (SIRSTP) step is too large -- backstep

   --- OUTPUT FROM SIRCNO     Keyword = FD+NO 


   Ex-sr + Ec-sr                        -24.2536155172
 + EJsr = sr Coulomb energy              91.1920859722
 = Total E(srDFT)                        66.9384704550


 Corrections needed for correct CI energy evaluation:
 - 0.5 Tr(Vxc-sr Dcore)                  13.9394997264
 -     Tr(Vxc-sr Dval)                    5.1952807220
 - 0.5 Tr( (Jsr+HFXFAC*Ksr) Dval )      -20.5289197397

 Occupations of CAS natural orbitals:

 Symmetry  1 ( irrep A1  in C2v )

   1.995894216   1.997852781   0.002515304   0.003798322   0.001345203

 Symmetry  2 ( irrep B1  in C2v )

   1.988817830   0.017424209

 Symmetry  3 ( irrep B2  in C2v )

   1.998606136   1.996402853   0.003589664

 Symmetry  4 ( irrep A2  in C2v )

   1.983900245   0.009853237


 Optimization control: Step was too large, we backstep


 --- MACRO ITERATION  2 BACKSTEP NO.  1 ---

 2-el. integral transformation level 3: Total CPU and WALL times (sec)       1.104       1.103

 Fock matrix screening setting for this macro iteration: 10^( -9)

   Ex-sr + Ec-sr                        -24.2536155172
 + EJsr = sr Coulomb energy              91.1920859722
 = Total E(srDFT)                        66.9384704550


 Corrections needed for correct CI energy evaluation:
 - 0.5 Tr(Vxc-sr Dcore)                  13.9394997264
 -     Tr(Vxc-sr Dval)                    5.1952807220
 - 0.5 Tr( (Jsr+HFXFAC*Ksr) Dval )      -20.5289197397

 Total MC-srDFT energy    :          -229.758842015215976  (MACRO    2)

 - Nuclear repulsion      :           160.516303280294949
 - Inactive energy        :          -340.592967818883324
 - Active energy          :           -24.034422668107080
 - srDFT effective energy :           -25.647754808520517

 Norm of total gradient   :             0.274410742898
 -    of CI gradient      :             0.128140731667
 -    of orbital gradient :             0.242654504812
      Virial theorem: -V/T =      2.287408
@    MULPOP   C   _1 -0.19; C   _2 -0.19; C   _1  0.25; C   _2  0.25; O      -0.68; H   _1  0.16; H   _2  0.16; H   _1  0.11; H   _2  0.11; 

 Residual norm when dim(red L) =   4
 NEO root     CSF        orbital          total
    1     0.03453966     0.01979219     0.03980853 converged

 (NEONEX) NEO vector is converged.

   --- OUTPUT FROM SIRCNO     Keyword = FD+NO 


   Ex-sr + Ec-sr                        -24.2232960151
 + EJsr = sr Coulomb energy              90.9626380909
 = Total E(srDFT)                        66.7393420757


 Corrections needed for correct CI energy evaluation:
 - 0.5 Tr(Vxc-sr Dcore)                  13.9353803265
 -     Tr(Vxc-sr Dval)                    5.1629956527
 - 0.5 Tr( (Jsr+HFXFAC*Ksr) Dval )      -20.3810767924

 Occupations of CAS natural orbitals:

 Symmetry  1 ( irrep A1  in C2v )

   1.996267869   1.998056704   0.002330184   0.003460533   0.001260637

 Symmetry  2 ( irrep B1  in C2v )

   1.988807400   0.016409076

 Symmetry  3 ( irrep B2  in C2v )

   1.998702311   1.996515161   0.003410791

 Symmetry  4 ( irrep A2  in C2v )

   1.985093509   0.009685824


 --- MACRO ITERATION  3 ---
 --------------------------

 2-el. integral transformation level 3: Total CPU and WALL times (sec)       1.104       1.103

 Fock matrix screening setting for this macro iteration: 10^( -9)

   Ex-sr + Ec-sr                        -24.2232960151
 + EJsr = sr Coulomb energy              90.9626380909
 = Total E(srDFT)                        66.7393420757


 Corrections needed for correct CI energy evaluation:
 - 0.5 Tr(Vxc-sr Dcore)                  13.9353803265
 -     Tr(Vxc-sr Dval)                    5.1629956527
 - 0.5 Tr( (Jsr+HFXFAC*Ksr) Dval )      -20.3810767924

 Total MC-srDFT energy    :          -229.763252766229925  (MACRO    3)

 - Nuclear repulsion      :           160.516303280294949
 - Inactive energy        :          -340.686848038095093
 - Active energy          :           -24.086711180107972
 - srDFT effective energy :           -25.505996828321848

 Norm of total gradient   :             0.043341971431
 -    of CI gradient      :             0.034115329579
 -    of orbital gradient :             0.026733327052
      Virial theorem: -V/T =      2.286293
@    MULPOP   C   _1 -0.20; C   _2 -0.20; C   _1  0.26; C   _2  0.26; O      -0.67; H   _1  0.16; H   _2  0.16; H   _1  0.12; H   _2  0.12; 

 Residual norm when dim(red L) =   9
 NEO root     CSF        orbital          total
    1     0.00554225     0.00329380     0.00644714 converged

 (NEONEX) NEO vector is converged.

   --- OUTPUT FROM SIRCNO     Keyword = FD+NO 


   Ex-sr + Ec-sr                        -24.2228149430
 + EJsr = sr Coulomb energy              90.9581050594
 = Total E(srDFT)                        66.7352901165


 Corrections needed for correct CI energy evaluation:
 - 0.5 Tr(Vxc-sr Dcore)                  14.0009301950
 -     Tr(Vxc-sr Dval)                    5.0312300716
 - 0.5 Tr( (Jsr+HFXFAC*Ksr) Dval )      -19.6943713923

 Occupations of CAS natural orbitals:

 Symmetry  1 ( irrep A1  in C2v )

   1.995636441   1.997328716   0.002996523   0.004231892   0.001445601

 Symmetry  2 ( irrep B1  in C2v )

   1.987400295   0.017982423

 Symmetry  3 ( irrep B2  in C2v )

   1.998572424   1.996008597   0.003783523

 Symmetry  4 ( irrep A2  in C2v )

   1.983418933   0.011194632


 --- MACRO ITERATION  4 ---
 --------------------------

 2-el. integral transformation level 3: Total CPU and WALL times (sec)       1.105       1.104

 Fock matrix screening setting for this macro iteration: 10^( -9)

   Ex-sr + Ec-sr                        -24.2228149430
 + EJsr = sr Coulomb energy              90.9581050594
 = Total E(srDFT)                        66.7352901165


 Corrections needed for correct CI energy evaluation:
 - 0.5 Tr(Vxc-sr Dcore)                  14.0009301950
 -     Tr(Vxc-sr Dval)                    5.0312300716
 - 0.5 Tr( (Jsr+HFXFAC*Ksr) Dval )      -19.6943713923

 Total MC-srDFT energy    :          -229.763953984965212  (MACRO    4)

 - Nuclear repulsion      :           160.516303280294949
 - Inactive energy        :          -341.743432444219366
 - Active energy          :           -23.651798752340998
 - srDFT effective energy :           -24.885026068699784

 Norm of total gradient   :             0.016475850074
 -    of CI gradient      :             0.015423033132
 -    of orbital gradient :             0.005795143197
      Virial theorem: -V/T =      2.298980
@    MULPOP   C   _1 -0.29; C   _2 -0.29; C   _1  0.25; C   _2  0.25; O      -0.37; H   _1  0.14; H   _2  0.14; H   _1  0.09; H   _2  0.09; 

 Residual norm when dim(red L) =  21
 NEO root     CSF        orbital          total
    1     0.00021695     0.00011851     0.00024721 converged

 (NEONEX) NEO vector is converged.

   --- OUTPUT FROM SIRCNO     Keyword = FD+NO 


   Ex-sr + Ec-sr                        -24.2228165348
 + EJsr = sr Coulomb energy              90.9588359787
 = Total E(srDFT)                        66.7360194439


 Corrections needed for correct CI energy evaluation:
 - 0.5 Tr(Vxc-sr Dcore)                  14.0036936303
 -     Tr(Vxc-sr Dval)                    5.0257084094
 - 0.5 Tr( (Jsr+HFXFAC*Ksr) Dval )      -19.6653527421

 Occupations of CAS natural orbitals:

 Symmetry  1 ( irrep A1  in C2v )

   1.995847256   1.997798949   0.002629699   0.003810603   0.001406693

 Symmetry  2 ( irrep B1  in C2v )

   1.987712455   0.017486661

 Symmetry  3 ( irrep B2  in C2v )

   1.998579992   1.996291201   0.003636697

 Symmetry  4 ( irrep A2  in C2v )

   1.983674861   0.011124934


 --- MACRO ITERATION  5 ---
 --------------------------

 2-el. integral transformation level 3: Total CPU and WALL times (sec)       1.100       1.099

 Fock matrix screening setting for this macro iteration: 10^( -9)

   Ex-sr + Ec-sr                        -24.2228165348
 + EJsr = sr Coulomb energy              90.9588359787
 = Total E(srDFT)                        66.7360194439


 Corrections needed for correct CI energy evaluation:
 - 0.5 Tr(Vxc-sr Dcore)                  14.0036936303
 -     Tr(Vxc-sr Dval)                    5.0257084094
 - 0.5 Tr( (Jsr+HFXFAC*Ksr) Dval )      -19.6653527421

 Total MC-srDFT energy    :          -229.764034699387480  (MACRO    5)

 - Nuclear repulsion      :           160.516303280294949
 - Inactive energy        :          -341.729024399904802
 - Active energy          :           -23.692546342529731
 - srDFT effective energy :           -24.858767237247861

 Norm of total gradient   :             0.000816001137
 -    of CI gradient      :             0.000583859486
 -    of orbital gradient :             0.000570057854
      Virial theorem: -V/T =      2.297500
@    MULPOP   C   _1 -0.28; C   _2 -0.28; C   _1  0.25; C   _2  0.25; O      -0.38; H   _1  0.13; H   _2  0.13; H   _1  0.09; H   _2  0.09; 

 (SIRNEO) iteration (  5, 24)
 maximum number of microiterations reached

   --- OUTPUT FROM SIRCNO     Keyword = FD+NO 


   Ex-sr + Ec-sr                        -24.2227923899
 + EJsr = sr Coulomb energy              90.9586318848
 = Total E(srDFT)                        66.7358394949


 Corrections needed for correct CI energy evaluation:
 - 0.5 Tr(Vxc-sr Dcore)                  14.0035624268
 -     Tr(Vxc-sr Dval)                    5.0259391885
 - 0.5 Tr( (Jsr+HFXFAC*Ksr) Dval )      -19.6658740915

 Occupations of CAS natural orbitals:

 Symmetry  1 ( irrep A1  in C2v )

   1.995852895   1.997817641   0.002615551   0.003800036   0.001403109

 Symmetry  2 ( irrep B1  in C2v )

   1.987722215   0.017473536

 Symmetry  3 ( irrep B2  in C2v )

   1.998582589   1.996303959   0.003625241

 Symmetry  4 ( irrep A2  in C2v )

   1.983684242   0.011118988


 --- MACRO ITERATION  6 ---
 --------------------------

 2-el. integral transformation level 3: Total CPU and WALL times (sec)       1.100       1.100

 Fock matrix screening setting for this macro iteration: 10^( -9)

   Ex-sr + Ec-sr                        -24.2227923899
 + EJsr = sr Coulomb energy              90.9586318848
 = Total E(srDFT)                        66.7358394949


 Corrections needed for correct CI energy evaluation:
 - 0.5 Tr(Vxc-sr Dcore)                  14.0035624268
 -     Tr(Vxc-sr Dval)                    5.0259391885
 - 0.5 Tr( (Jsr+HFXFAC*Ksr) Dval )      -19.6658740915

 Total MC-srDFT energy    :          -229.764035218628351  (MACRO    6)

 - Nuclear repulsion      :           160.516303280294949
 - Inactive energy        :          -341.722482214746378
 - Active energy          :           -23.698691418001715
 - srDFT effective energy :           -24.859164866175234

 Norm of total gradient   :             0.000022936291
 -    of CI gradient      :             0.000019366261
 -    of orbital gradient :             0.000012289076
      Virial theorem: -V/T =      2.297274
@    MULPOP   C   _1 -0.28; C   _2 -0.28; C   _1  0.25; C   _2  0.25; O      -0.39; H   _1  0.13; H   _2  0.13; H   _1  0.09; H   _2  0.09; 

 Residual norm when dim(red L) =   4
 NEO root     CSF        orbital          total
    1     0.00000664     0.00000456     0.00000805 converged

 (NEONEX) NEO vector is converged.

   --- OUTPUT FROM SIRCNO     Keyword = FD+NO 


   Ex-sr + Ec-sr                        -24.2227910277
 + EJsr = sr Coulomb energy              90.9586209843
 = Total E(srDFT)                        66.7358299565


 Corrections needed for correct CI energy evaluation:
 - 0.5 Tr(Vxc-sr Dcore)                  14.0035664589
 -     Tr(Vxc-sr Dval)                    5.0259292761
 - 0.5 Tr( (Jsr+HFXFAC*Ksr) Dval )      -19.6658011964

 Occupations of CAS natural orbitals:

 Symmetry  1 ( irrep A1  in C2v )

   1.995853105   1.997818081   0.002615123   0.003799806   0.001403027

 Symmetry  2 ( irrep B1  in C2v )

   1.987722814   0.017472707

 Symmetry  3 ( irrep B2  in C2v )

   1.998582642   1.996304153   0.003625079

 Symmetry  4 ( irrep A2  in C2v )

   1.983684970   0.011118493


 --- MACRO ITERATION  7 ---
 --------------------------

 2-el. integral transformation level 3: Total CPU and WALL times (sec)       1.101       1.099

 Fock matrix screening setting for this macro iteration: 10^( -9)

   Ex-sr + Ec-sr                        -24.2227910277
 + EJsr = sr Coulomb energy              90.9586209843
 = Total E(srDFT)                        66.7358299565


 Corrections needed for correct CI energy evaluation:
 - 0.5 Tr(Vxc-sr Dcore)                  14.0035664589
 -     Tr(Vxc-sr Dval)                    5.0259292761
 - 0.5 Tr( (Jsr+HFXFAC*Ksr) Dval )      -19.6658011964

 Total MC-srDFT energy    :          -229.764035218735955  (MACRO    7)

 - Nuclear repulsion      :           160.516303280294949
 - Inactive energy        :          -341.722563463014808
 - Active energy          :           -23.698678546866752
 - srDFT effective energy :           -24.859096489149380

 Norm of total gradient   :             0.000008052226
 -    of CI gradient      :             0.000006639698
 -    of orbital gradient :             0.000004555518
      Virial theorem: -V/T =      2.297273
@    MULPOP   C   _1 -0.28; C   _2 -0.28; C   _1  0.25; C   _2  0.25; O      -0.39; H   _1  0.13; H   _2  0.13; H   _1  0.09; H   _2  0.09; 

 (SIRSTP) Energy difference;
 actual, predicted and ratio:  -0.000000000107605  -0.000000000108512    0.991636
 Close to convergence, ratio set to one.

 *** Optimization control: MC-srDFT converged ***
     Number of macro iterations used            7
     Number of micro iterations used           63
     Total number of CPU seconds used        67.52

 CPU and wall time for MCSCF :      67.522      67.478


                     .----------------------------------------.
                     | --- SIRIUS OPTIMIZATION STATISTICS --- |
                     `----------------------------------------'


 
     Date and time (Linux)  : Tue Aug  7 11:50:26 2018
     Host name              : s72p25.deic.sdu.dk                      


  ITER ITMIC     EMCSCF           GRDNRM        RATIO      STPLNG
 ---------------------------------------------------------------------
    1    5   -229.737345004905   0.4426064590  0.000000   0.7549743267
    2    0   -229.747077869488   0.4982924621  0.225741   0.0000000000
    2    3   -229.758842015216   0.2744107429  0.597322   0.1162929641
    3    8   -229.763252766230   0.0433419714  0.997323   0.4017899896
    4   20   -229.763953984965   0.0164758501  0.829878   0.0942998558
    5   24   -229.764034699387   0.0008160011  1.031816   0.0093363287
    6    3   -229.764035218628   0.0000229363  1.005534   0.0001061164
    7    0   -229.764035218736   0.0000080522  1.000000   0.0000000000


  ITER  INDGCM  GCIMAX      GCINRM     INDGOM  GOBMAX      GOBNRM      GRDNRM
 ------------------------------------------------------------------------------
    1 120686   -0.107921    0.286234    469    0.104441    0.337595    0.442606
    2 121397    0.105106    0.259094     19   -0.116376    0.425636    0.498292
    2 121397    0.045738    0.128141     19   -0.077291    0.242655    0.274411
    3 125463   -0.003628    0.034115      4   -0.014247    0.026733    0.043342
    4 121873    0.002550    0.015423      4    0.002528    0.005795    0.016476
    5 120931    0.000092    0.000584      4    0.000236    0.000570    0.000816
    6 120922    0.000003    0.000019     30    0.000002    0.000012    0.000023
    7 120763   -0.000001    0.000007     18   -0.000001    0.000005    0.000008


  ITER ITMIC NCLIN NOLIN   TIMMAC    TIMITR    TIMMIC    TIMLIN    TIMMIC/ITMIC
 ------------------------------------------------------------------------------

    1     5     2     3      5.60      1.14      3.88      3.48      0.78
    2     0     0     0      2.05      1.10      0.00      0.00
    2     3     1     2      4.17      1.10      2.49      2.11      0.83
    3     8     3     5      7.73      1.10      6.05      5.63      0.76
    4    20    10    10     16.64      1.11     14.95     14.33      0.75
    5    24    15     9     19.72      1.10     18.03     17.28      0.75
    6     3     1     2      4.16      1.10      2.47      2.09      0.82
    7     0     0     0      1.67      1.10      0.00      0.00


 ITER         EMY                 EACTIV              EMCSCF

    1   -366.475599103105    -23.778049182094   -229.737345004905
    2   -365.936727141770    -24.326654008012   -229.747077869488
    2   -366.240722627404    -24.034422668107   -229.758842015216
    3   -366.192844866417    -24.086711180108   -229.763252766230
    4   -366.628458512919    -23.651798752341   -229.763953984965
    5   -366.587791637153    -23.692546342530   -229.764034699387
    6   -366.581647080922    -23.698691418002   -229.764035218628
    7   -366.581659952164    -23.698678546867   -229.764035218736


 ITER         DEPRED              DEACT               RATIO

    1      0.000000000000      0.000000000000      0.000000000000
    2     -0.043115159068     -0.009732864583      0.225741126638
    2     -0.035988978071     -0.021497010311      0.597322054234
    3     -0.004422589869     -0.004410751014      0.997323094619
    4     -0.000844965738     -0.000701218735      0.829878306107
    5     -0.000078225614     -0.000080714422      1.031815768581
    6     -0.000000516383     -0.000000519241      1.005534218226
    7     -0.000000000109     -0.000000000108      1.000000000000


 ITER    BETA           GAMMA             STPLNG              RTRUST

    1      0.70176318  1.00000000      0.754974326718      0.700000000000
    2      0.00000000  0.00000000      0.000000000000      0.469000000000
    2      0.20000000  1.00000000      0.116292964146      0.469000000000
    3      0.20000000  1.00000000      0.401789989586      0.675360000000
    4      0.20000000  1.00000000      0.094299855791      0.700000000000
    5      0.20000000  1.00000000      0.009336328748      0.700000000000
    6      0.20000000  1.00000000      0.000106116383      0.700000000000
    7      0.00000000  0.00000000      0.000000000000      0.700000000000


 Reduced L root no.  1
 ITER         EVAL              EVEC(1)           EVEC(2)           EVEC(3)
 ----------------------------------------------------------------------------
    1   -0.033158360589    0.883641196026   -0.174719831740   -0.426065585247
    2    0.000000000000    0.000000000000    0.000000000000    0.000000000000
    2   -0.000353615897    0.999729628620   -0.009747957564   -0.018439262548
    3   -0.000067163557    0.996786849207   -0.002353885820   -0.075266350611
    4   -0.000006255824    0.999822198175   -0.001269805233   -0.014327847437
    5   -0.000000041311    0.999998256664   -0.000039879785   -0.001666167881
    6   -0.000000000009    0.999999999775   -0.000001216992   -0.000020507399
    7    0.000000000000    0.000000000000    0.000000000000    0.000000000000


                       .-----------------------------------.
                       | --- Final results from SIRIUS --- |
                       `-----------------------------------'


@    Spin multiplicity:           1
@    Spatial symmetry:            1 ( irrep  A1  in C2v )
@    Total charge of molecule:    0
@    State number:                1

@    Final MC-SRDFT energy:      -229.764035218736                 
@    Nuclear repulsion:           160.516303280295
@    Electronic energy:          -390.280338499031

@    Final gradient norm:           0.000008052226

 
     Date and time (Linux)  : Tue Aug  7 11:50:26 2018
     Host name              : s72p25.deic.sdu.dk                      

 Occupancies of natural orbitals
 -------------------------------

 Symmetry 1  ( A1 ) -- Total occupation in this symmetry is  18.001489143

   2.000000000   2.000000000   2.000000000   2.000000000   2.000000000
   2.000000000   2.000000000   1.995853105   1.997818081   0.002615123
   0.003799806   0.001403027

 Symmetry 2  ( B1 ) -- Total occupation in this symmetry is   4.005195520

   2.000000000   1.987722814   0.017472707

 Symmetry 3  ( B2 ) -- Total occupation in this symmetry is  11.998511875

   2.000000000   2.000000000   2.000000000   2.000000000   1.998582642
   1.996304153   0.003625079

 Symmetry 4  ( A2 ) -- Total occupation in this symmetry is   1.994803462

   1.983684970   0.011118493

File label for MO orbitals:   7Aug18   (CNOORB)

 (Only coefficients > 0.0100 are printed.)

 Molecular orbitals for symmetry species 1  (A1 )
 ------------------------------------------------

    Orbital         1        2        3        4        5        6        7
   1 C   :1s     0.0000   0.3298  -0.0020  -0.0385  -0.0173  -0.0424   0.0279
   2 C   :1s    -0.0002   0.4298  -0.0025  -0.0797  -0.0360  -0.0898   0.0590
   3 C   :1s     0.0002   0.0289  -0.0010   0.1251   0.0542   0.1497  -0.0952
   4 C   :1s     0.0000  -0.0212   0.0040   0.1022   0.0659   0.1569  -0.1238
   5 C   :1s    -0.0074   0.0060  -0.0096   0.0354   0.0064   0.0557  -0.0096
   6 C   :2py   -0.0003  -0.0006   0.0004  -0.0670  -0.0255   0.1643   0.0655
   7 C   :2pz    0.0005   0.0002  -0.0001   0.0183  -0.0755   0.0648   0.0229
   8 C   :2py   -0.0009   0.0021  -0.0008  -0.0426  -0.0287   0.1127   0.0759
   9 C   :2pz   -0.0000  -0.0005  -0.0008   0.0084  -0.0505   0.0509   0.0277
  10 C   :2py    0.0058   0.0069   0.0020  -0.0092  -0.0011   0.0453  -0.0188
  11 C   :2pz    0.0017   0.0022   0.0020  -0.0100  -0.0079   0.0174   0.0129
  14 C   :3d2+  -0.0005  -0.0008  -0.0002  -0.0114  -0.0031  -0.0013   0.0122
  15 C   :1s     0.0000   0.0019   0.3297  -0.0179  -0.0640   0.0092  -0.0242
  16 C   :1s    -0.0000   0.0027   0.4297  -0.0371  -0.1335   0.0197  -0.0512
  17 C   :1s     0.0005  -0.0003   0.0296   0.0549   0.2095  -0.0329   0.0834
  18 C   :1s    -0.0016   0.0018  -0.0188   0.0506   0.1819  -0.0286   0.1219
  19 C   :1s     0.0050  -0.0006   0.0137  -0.0133   0.0386  -0.0042   0.0469
  20 C   :2py   -0.0002   0.0004  -0.0008  -0.0237  -0.0053   0.0929   0.0105
  21 C   :2pz   -0.0002   0.0001   0.0006   0.0439  -0.0183  -0.0247  -0.1348
  22 C   :2py    0.0005   0.0008   0.0006  -0.0162  -0.0062   0.0637   0.0116
  23 C   :2pz   -0.0008   0.0006  -0.0018   0.0274  -0.0199  -0.0175  -0.0788
  24 C   :2py   -0.0022  -0.0039  -0.0011   0.0048   0.0154  -0.0032   0.0250
  25 C   :2pz    0.0034   0.0036   0.0037  -0.0112  -0.0202   0.0010  -0.0291
  28 C   :3d2+   0.0000   0.0000   0.0001  -0.0033  -0.0102   0.0035  -0.0043
  29 O   :1s     0.4351  -0.0000   0.0001  -0.0856   0.0396   0.0173  -0.0386
  30 O   :1s     0.6388  -0.0003   0.0001  -0.1994   0.0930   0.0410  -0.0913
  31 O   :1s     0.0384   0.0023   0.0004   0.2836  -0.1392  -0.0636   0.1398
  32 O   :1s    -0.0286  -0.0045  -0.0028   0.3998  -0.1913  -0.0901   0.2008
  33 O   :1s     0.0208   0.0126   0.0029   0.0830  -0.1039  -0.0522   0.1642
  34 O   :2pz   -0.0021  -0.0002   0.0009  -0.0627  -0.1111   0.0137   0.2882
  35 O   :2pz    0.0024   0.0012   0.0010  -0.0581  -0.0865   0.0139   0.2296
  36 O   :2pz   -0.0039  -0.0051   0.0005   0.0252  -0.0514  -0.0159   0.1144
  37 O   :3d0   -0.0001  -0.0000   0.0000   0.0038   0.0088  -0.0080  -0.0167
  39 H   :1s     0.0001  -0.0003   0.0001   0.0121  -0.0058   0.1253  -0.0068
  40 H   :1s    -0.0003  -0.0007   0.0000   0.0166  -0.0011   0.1595  -0.0330
  41 H   :1s    -0.0023  -0.0061   0.0002   0.0022  -0.0083   0.0351   0.0116
  42 H   :2py    0.0001   0.0012  -0.0001  -0.0031   0.0003  -0.0148   0.0037
  44 H   :1s     0.0000  -0.0001  -0.0006  -0.0047   0.0709   0.0219   0.0739
  45 H   :1s     0.0001   0.0003  -0.0010  -0.0074   0.0936   0.0257   0.0869
  46 H   :1s     0.0015   0.0034  -0.0007  -0.0144   0.0138   0.0198   0.0105

    Orbital         8        9       10       11       12       13       14
   1 C   :1s     0.0087   0.0084  -0.0542   0.0026  -0.0344   0.0060  -0.0171
   2 C   :1s     0.0180   0.0175  -0.1166   0.0077  -0.0853   0.0150  -0.0335
   3 C   :1s    -0.0324  -0.0242   0.1668  -0.0529   0.2885  -0.0686   0.0251
   4 C   :1s     0.0004  -0.0213   0.9485  -0.0483   0.2139   0.2056   0.1424
   5 C   :1s     0.0102   0.0231   0.7716  -0.5657  -0.0571  -0.0719   0.3261
   6 C   :2py    0.0231  -0.0730  -0.1665  -0.1301  -0.1814  -0.0452   0.0967
   7 C   :2pz    0.1833   0.0981  -0.1212   0.2531   0.0817  -0.0409   0.0498
   8 C   :2py   -0.0016  -0.0585  -0.4153  -0.2249   0.3002  -0.0641   0.0161
   9 C   :2pz    0.1207   0.0400  -0.2233   0.5165   0.4346  -0.0863  -0.0381
  10 C   :2py    0.0276  -0.0151  -0.1419   0.0210   0.0017  -1.5674   1.3491
  11 C   :2pz    0.0249  -0.0298  -0.2972   0.3828   0.2016  -0.4947   0.5967
  12 C   :3d1-   0.0046  -0.0215   0.0292   0.0246  -0.0767   0.0049  -0.0019
  13 C   :3d0   -0.0137  -0.0109  -0.0289   0.0245   0.1091  -0.0066  -0.0018
  14 C   :3d2+  -0.0089  -0.0073   0.0017   0.0038   0.0850  -0.0061  -0.0022
  15 C   :1s    -0.0054   0.0252   0.0358  -0.0101  -0.0187  -0.0134  -0.0093
  16 C   :1s    -0.0116   0.0526   0.0800  -0.0207  -0.0477  -0.0256  -0.0166
  17 C   :1s     0.0190  -0.0848  -0.1517   0.0096   0.1258   0.0253  -0.0077
  18 C   :1s     0.0173  -0.0953  -0.5146   0.2430   0.4268   0.1170   0.2147
  19 C   :1s    -0.0222  -0.0574  -0.8346   0.6142   0.2110   0.9356   0.5010
  20 C   :2py   -0.2578   0.1593  -0.0221   0.0815  -0.0007   0.1019   0.0044
  21 C   :2pz   -0.1306  -0.1512  -0.1587   0.0882   0.0642  -0.0996  -0.0312
  22 C   :2py   -0.1817   0.1084  -0.1247   0.0901   0.2070  -0.0311  -0.0062
  23 C   :2pz   -0.0925  -0.1139  -0.3432   0.3917  -0.0884  -0.0679   0.0300
  24 C   :2py   -0.0815   0.0275  -0.2496   0.0428   0.0610   1.2843  -0.4095
  25 C   :2pz   -0.0267  -0.0490  -0.4054   0.3253  -0.0256  -1.4686   0.4866
  26 C   :3d1-  -0.0003  -0.0028   0.0168  -0.1059   0.1370   0.0113  -0.0113
  27 C   :3d0   -0.0146   0.0058   0.0793   0.0058  -0.0157   0.0026  -0.0007
  28 C   :3d2+  -0.0098   0.0080   0.0163   0.0175  -0.0039   0.0099  -0.0039
  29 O   :1s     0.0083  -0.0154   0.0352   0.0390   0.0176   0.0022  -0.0041
  30 O   :1s     0.0200  -0.0356   0.0842   0.0924   0.0440   0.0072  -0.0128
  31 O   :1s    -0.0323   0.0477  -0.1376  -0.1415  -0.1231  -0.0417   0.0677
  32 O   :1s    -0.0490   0.0862  -0.3090  -0.3536   0.1510   0.1467  -0.2395
  33 O   :1s    -0.0945  -0.0225  -0.5560  -0.5062  -0.6093  -0.8563   1.0468
  34 O   :2pz   -0.1324  -0.2893   0.2607   0.1371  -0.0573  -0.0187   0.0323
  35 O   :2pz   -0.1014  -0.2460   0.3146   0.2151  -0.0029  -0.0244   0.0684
  36 O   :2pz   -0.0649  -0.1280   0.2697   0.1146   0.0642   0.1457  -0.3332
  37 O   :3d0   -0.0005   0.0104   0.0136  -0.0330  -0.1014   0.0090   0.0011
  38 O   :3d2+  -0.0059  -0.0045  -0.0117  -0.0449  -0.1014   0.0078  -0.0014
  39 H   :1s     0.0531  -0.0231  -0.0270   0.0027  -0.0894   0.0088   0.0059
  40 H   :1s     0.0904  -0.0193  -0.0020   0.0057  -0.5563   0.0146   0.3610
  41 H   :1s     0.0332  -0.0071   0.0303  -0.0028   0.0155   1.6808  -2.3399
  42 H   :2py   -0.0066  -0.0017  -0.0054  -0.0051   0.0569   0.0096  -0.0299
  43 H   :2pz    0.0017   0.0027  -0.0010   0.0168   0.0444   0.0044  -0.0130
  44 H   :1s    -0.0241   0.0843   0.0277   0.0620  -0.0789  -0.0051   0.0155
  45 H   :1s    -0.0352   0.1225   0.0958   0.2378  -0.4325   0.2562   0.3122
  46 H   :1s    -0.0079   0.0567   0.0275   0.0247  -0.0041  -2.8830  -0.1477
  47 H   :2py   -0.0058  -0.0043  -0.0281  -0.0115   0.0277  -0.0215  -0.0069
  48 H   :2pz   -0.0070   0.0078  -0.0176   0.0194  -0.0374   0.0241   0.0109

    Orbital        15       16       17       18       19       20       21
   1 C   :1s    -0.0113  -0.0096  -0.0039  -0.0145  -0.0121   0.0169   0.0005
   2 C   :1s    -0.0193  -0.0245  -0.0116  -0.0259  -0.0256   0.0327  -0.0050
   3 C   :1s    -0.0841   0.0725   0.0608  -0.1328  -0.0263   0.0364   0.1185
   4 C   :1s     0.9296  -0.0820  -0.1314   1.4804   0.6256  -0.7376  -0.9151
   5 C   :1s    -2.2867   0.5812   1.7210  -8.1689  -5.2035  -1.2548  -3.5973
   6 C   :2py   -0.0589  -0.0778   0.0085  -0.0208   0.0718  -0.1557   0.0215
   7 C   :2pz   -0.0164   0.0652  -0.0300  -0.0457  -0.0132  -0.0515  -0.0891
   8 C   :2py    0.0148  -0.1011  -0.0992  -0.3195   0.5646  -0.5159   0.6186
   9 C   :2pz    0.0819   0.3241  -0.2436  -0.5293   0.0450  -0.2597  -0.1603
  10 C   :2py   -0.1803  -0.0724   0.1008   1.0939  -1.6177   5.4599   3.1426
  11 C   :2pz   -0.4522  -1.7759   0.4938   3.6852   0.0656   2.6653   4.0355
  12 C   :3d1-   0.0052  -0.0073  -0.0046   0.0071   0.0163  -0.0000   0.0079
  13 C   :3d0    0.0177  -0.0097  -0.0007   0.0116   0.0030   0.0030   0.0092
  14 C   :3d2+  -0.0250   0.0110   0.0066  -0.0181   0.0124   0.0078   0.0255
  15 C   :1s    -0.0156   0.0072  -0.0087   0.0185  -0.0010  -0.0122   0.0074
  16 C   :1s    -0.0289   0.0139  -0.0107   0.0360  -0.0051  -0.0270   0.0125
  17 C   :1s    -0.0464   0.0052  -0.1161   0.1140   0.0432   0.0403   0.0469
  18 C   :1s     0.8010  -0.2450   0.9598  -1.5560  -0.4079  -0.1176  -0.2912
  19 C   :1s    -1.1949  -1.0374  -2.0093   9.6559   0.4627   1.2930   5.7752
  20 C   :2py    0.0016  -0.0454  -0.0771  -0.0531   0.0236   0.1176  -0.0751
  21 C   :2pz    0.0443  -0.0578  -0.0643  -0.0461  -0.0841  -0.0983   0.0531
  22 C   :2py    0.0567  -0.1662  -0.1808  -0.3771   0.2344   0.4222  -0.0326
  23 C   :2pz    0.0330  -0.0930  -0.3655  -0.3226  -0.5666  -0.4108   0.2339
  24 C   :2py   -0.2586   0.2270   0.3239   1.9656  -0.6907  -3.7015  -0.3661
  25 C   :2pz    0.1156  -0.2810   0.4522   2.5797   2.6062   4.4639   2.3402
  26 C   :3d1-  -0.0006   0.0033  -0.0091  -0.0101  -0.0002   0.0001   0.0180
  27 C   :3d0    0.0180   0.0070   0.0045  -0.0205  -0.0072   0.0069   0.0128
  28 C   :3d2+  -0.0185   0.0041  -0.0267   0.0066   0.0075   0.0114  -0.0040
  29 O   :1s    -0.0090   0.0030   0.0128   0.0049  -0.0033  -0.0026  -0.0275
  30 O   :1s    -0.0253   0.0024   0.0328   0.0098  -0.0058  -0.0092  -0.0626
  31 O   :1s     0.0961   0.0731  -0.0868   0.0137  -0.0270   0.0657   0.0541
  32 O   :1s    -0.2081  -0.4638   0.0837  -0.1694   0.2015  -0.3041   0.3265
  33 O   :1s     1.0954   1.2513  -0.9649   0.4593  -0.4466   2.1081   1.4751
  34 O   :2pz    0.0290   0.1597  -0.0613  -0.0293   0.0360   0.0353   0.1087
  35 O   :2pz    0.0328   0.2239  -0.0959  -0.0101   0.0338   0.0810   0.4345
  36 O   :2pz    0.0267   0.0558   0.0970  -0.0825   0.1617  -0.3886  -2.9529
  37 O   :3d0    0.0001  -0.0067   0.0009   0.0187  -0.0084   0.0120  -0.0274
  38 O   :3d2+  -0.0185  -0.0107   0.0070  -0.0031   0.0042  -0.0079  -0.0122
  39 H   :1s     0.0177  -0.0261  -0.0285   0.0031  -0.0058   0.0432  -0.0183
  40 H   :1s    -0.1505  -0.1756  -0.1564   0.2012  -0.2788   0.3090  -0.6412
  41 H   :1s     1.5885   0.7565  -0.7790  -0.5215   2.7573  -4.5108  -2.3672
  42 H   :2py    0.0217   0.0063  -0.0116  -0.0183   0.0373  -0.0165   0.0274
  43 H   :2pz    0.0224  -0.0018  -0.0128  -0.0142   0.0198   0.0033   0.0321
  44 H   :1s     0.0083   0.0048   0.0243   0.0026  -0.0030  -0.0432   0.0267
  45 H   :1s    -0.0774   0.1567  -0.0255   0.0195  -0.2940  -0.2584   0.4215
  46 H   :1s     0.8090  -0.5185   1.1084  -1.2255   2.6069   4.2365   0.1881
  47 H   :2py    0.0085  -0.0003   0.0243  -0.0082   0.0217  -0.0004  -0.0024
  48 H   :2pz   -0.0133   0.0110  -0.0166   0.0116  -0.0269  -0.0071  -0.0050

    Orbital        22
   2 C   :1s    -0.0167
   3 C   :1s    -0.0502
   4 C   :1s     0.7795
   5 C   :1s    -0.5857
   6 C   :2py    0.1487
   7 C   :2pz    0.0317
   8 C   :2py   -0.0375
   9 C   :2pz    0.1375
  10 C   :2py    2.9693
  11 C   :2pz    0.3797
  14 C   :3d2+  -0.0177
  15 C   :1s     0.0133
  16 C   :1s     0.0282
  17 C   :1s     0.0251
  18 C   :1s    -1.0526
  19 C   :1s    -0.1831
  20 C   :2py   -0.0855
  21 C   :2pz    0.0572
  22 C   :2py    0.0376
  23 C   :2pz    0.2018
  24 C   :2py   -3.2714
  25 C   :2pz    2.4212
  27 C   :3d0   -0.0245
  30 O   :1s    -0.0172
  32 O   :1s     0.3504
  33 O   :1s     0.1449
  34 O   :2pz   -0.1328
  35 O   :2pz   -0.3311
  36 O   :2pz    1.3592
  37 O   :3d0    0.0127
  38 O   :3d2+  -0.0113
  39 H   :1s    -0.0502
  40 H   :1s    -0.8535
  41 H   :1s    -1.3104
  43 H   :2pz   -0.0199
  44 H   :1s     0.0518
  45 H   :1s     1.0027
  46 H   :1s     2.1315
  47 H   :2py   -0.0121

 Molecular orbitals for symmetry species 2  (B1 )
 ------------------------------------------------

    Orbital         1        2        3        4        5        6        7
   1 C   :2px    0.1648  -0.0510   0.2907  -0.1150   0.0974  -0.0403   0.1114
   2 C   :2px    0.1438  -0.0493   0.3489  -0.3893   0.3410   0.1090  -0.1236
   3 C   :2px    0.0412  -0.0152   0.2469   0.6852  -1.0356   0.7383  -0.0324
   4 C   :3d2-  -0.0205  -0.0071   0.0167   0.0123  -0.0052   0.0026   0.2078
   5 C   :3d1+   0.0043   0.0252  -0.0154   0.0073   0.0013  -0.0020   0.1473
   6 C   :2px    0.1101  -0.2396  -0.1488  -0.1010  -0.1257   0.0268   0.1329
   7 C   :2px    0.0919  -0.2222  -0.1769  -0.3197  -0.4558   0.0137  -0.0767
   8 C   :2px    0.0323  -0.1211  -0.1657   0.2742   1.0255  -0.2835  -0.0109
   9 C   :3d2-  -0.0050   0.0129   0.0500   0.0073   0.0144   0.0190   0.1604
  10 C   :3d1+   0.0100  -0.0070   0.0440  -0.0127  -0.0078  -0.0058  -0.2569
  11 O   :2px    0.3331   0.2984  -0.2474  -0.0390   0.0459   0.2859   0.0046
  12 O   :2px    0.2834   0.2546  -0.1998   0.0005   0.0310   0.7354  -0.0240
  13 O   :2px    0.1559   0.2037  -0.2926  -0.2311   0.1863  -1.9232   0.1781
  14 O   :3d1+  -0.0212  -0.0093  -0.0032   0.0079  -0.0117  -0.0199   0.0493
  15 H   :2px    0.0051  -0.0023   0.0127   0.0068  -0.0030   0.0139   0.2587
  16 H   :2px    0.0040  -0.0098  -0.0064   0.0096   0.0131   0.0028   0.3243

    Orbital         8        9       10       11       12       13
   1 C   :2px   -0.0794   0.8164  -0.0938   0.2865  -0.1352   0.1386
   2 C   :2px    0.1251  -0.9775   0.1432  -0.6113   0.4337  -0.4351
   3 C   :2px   -0.1630   0.5413  -0.3663   0.0261  -0.0833   0.1335
   4 C   :3d2-   0.0992  -0.0590   0.1077   0.3425   0.3557  -0.2640
   5 C   :3d1+   0.2019   0.0604  -0.0869  -0.2682   0.0876   0.2659
   6 C   :2px   -0.0595   0.2095   0.7984  -0.3418   0.0035  -0.1355
   7 C   :2px    0.0427  -0.1426  -0.9371   0.5146   0.0966   0.4863
   8 C   :2px    0.0887  -0.0550   0.5769  -0.1228  -0.0204  -0.1300
   9 C   :3d2-  -0.3919  -0.1390   0.0786   0.1314   0.1403   0.4480
  10 C   :3d1+  -0.0828  -0.0643   0.1572   0.1747  -0.3928  -0.0282
  11 O   :2px   -0.0097   0.0319   0.0288   0.2279   0.0318  -0.1934
  12 O   :2px   -0.0286   0.1243  -0.0668  -0.0942  -0.0387   0.1972
  13 O   :2px    0.0209  -0.1847   0.2708   0.4624  -0.0417  -0.0784
  14 O   :3d1+   0.0118  -0.0030   0.0567   0.2073   0.1076  -0.1660
  15 H   :2px    0.3065  -0.1251   0.1133   0.2082  -0.5070   0.2800
  16 H   :2px   -0.2509  -0.0382  -0.1608  -0.1710  -0.4017  -0.4614

 Molecular orbitals for symmetry species 3  (B2 )
 ------------------------------------------------

    Orbital         1        2        3        4        5        6        7
   1 C   :1s     0.3297  -0.0022  -0.0554   0.0196  -0.0399   0.0099   0.0338
   2 C   :1s     0.4294  -0.0029  -0.1160   0.0413  -0.0837   0.0216   0.0743
   3 C   :1s     0.0310   0.0003   0.1875  -0.0677   0.1408  -0.0338  -0.1318
   4 C   :1s    -0.0251   0.0032   0.1778  -0.0767   0.1464  -0.0545  -0.4412
   5 C   :1s     0.0258  -0.0144   0.0489   0.0233   0.0103  -0.0190  -0.6261
   6 C   :2py   -0.0020  -0.0001   0.0621  -0.0795  -0.1747  -0.1347   0.1364
   7 C   :2pz    0.0005  -0.0007   0.0112  -0.1525  -0.1011   0.1634  -0.0298
   8 C   :2py    0.0023   0.0001   0.0381  -0.0523  -0.1244  -0.0895   0.2834
   9 C   :2pz    0.0004  -0.0013   0.0108  -0.0970  -0.0599   0.1160  -0.0192
  10 C   :2py   -0.0086  -0.0010   0.0276  -0.0557  -0.0310  -0.0284   0.1101
  11 C   :2pz   -0.0092   0.0020   0.0102  -0.0364  -0.0088   0.0298   0.0549
  12 C   :3d1-   0.0002  -0.0003   0.0011  -0.0001  -0.0059  -0.0245  -0.0587
  13 C   :3d0    0.0002  -0.0005   0.0070   0.0052   0.0095   0.0025   0.0527
  15 C   :1s     0.0020   0.3298  -0.0379  -0.0477  -0.0091   0.0013   0.0195
  16 C   :1s     0.0027   0.4296  -0.0793  -0.1008  -0.0190   0.0020   0.0423
  17 C   :1s     0.0003   0.0305   0.1262   0.1650   0.0325  -0.0058  -0.0656
  18 C   :1s     0.0027  -0.0271   0.1198   0.1705   0.0194   0.0334  -0.2676
  19 C   :1s    -0.0204   0.0384   0.0232  -0.0130   0.0522  -0.0226  -0.4811
  20 C   :2py   -0.0002  -0.0001   0.0728   0.0845  -0.0176   0.0022   0.2363
  21 C   :2pz    0.0005   0.0011  -0.0108  -0.0098   0.1921  -0.1406   0.1011
  22 C   :2py   -0.0000   0.0023   0.0476   0.0511  -0.0145   0.0026   0.5118
  23 C   :2pz    0.0002  -0.0015  -0.0093  -0.0089   0.1207  -0.0842   0.1595
  24 C   :2py   -0.0020  -0.0046   0.0163   0.0406  -0.0248   0.0363   0.5388
  25 C   :2pz   -0.0015   0.0053  -0.0299  -0.0408   0.0664  -0.0630   0.2672
  26 C   :3d1-  -0.0003  -0.0004   0.0002  -0.0044   0.0123  -0.0171   0.0338
  27 C   :3d0   -0.0006   0.0002   0.0067   0.0097   0.0121  -0.0002  -0.0500
  28 C   :3d2+   0.0001  -0.0007  -0.0016  -0.0009   0.0050  -0.0006  -0.0391
  29 O   :2py    0.0022  -0.0005   0.0832  -0.1028   0.1845   0.3198   0.2351
  30 O   :2py    0.0004  -0.0007   0.0651  -0.0815   0.1461   0.2594   0.2749
  31 O   :2py    0.0051   0.0007   0.0023  -0.0111   0.0228   0.0895   0.3618
  32 O   :3d1-   0.0005   0.0001  -0.0078   0.0053  -0.0205  -0.0194   0.0295
  33 H   :1s    -0.0007  -0.0000   0.0820  -0.0879  -0.0626  -0.0470  -0.0321
  34 H   :1s    -0.0002   0.0001   0.1064  -0.1201  -0.1000  -0.0733  -0.1132
  35 H   :1s     0.0021   0.0027   0.0164  -0.0241  -0.0515  -0.0269   0.0875
  36 H   :2py    0.0012  -0.0001  -0.0116   0.0112   0.0055   0.0009   0.0142
  38 H   :1s    -0.0003  -0.0006   0.0640   0.0810  -0.0768   0.0669  -0.0266
[...]

@ Excitation energy :  0.46629578     au
@                       12.688554     eV;   102340.09     cm-1;   1224.2594     kJ / mol

@ Total energy :       -229.29774     au

 Eigenvector for state no. 10

     Response orbital operator symmetry = 3
     (only scaled elements abs greater than   10.00 % of max abs value)

      Index(r,s)      r      s        (r s) operator      (s r) operator      (r s) scaled        (s r) scaled
      ----------    -----  -----      --------------      --------------      --------------      --------------
          15         5(1)  71(3)        0.0466124163       -0.0017887161        0.0658601430       -0.0025273329
          16         6(1)  69(3)       -0.2247134369        1.2379857699       -0.0084599703        0.0466074617
          18         6(1)  71(3)        0.0668177225        0.0022763429        0.0944088530        0.0032163162
          20         7(1)  70(3)       -0.8640880288       -0.0704110882       -0.0525309150       -0.0042805348
          21         7(1)  71(3)       -0.0868152046        0.0012558126       -0.1226639218        0.0017743770
         163         5(1)  73(3)       -0.0337269087        0.0014589773       -0.0476970517        0.0020633054
         197         6(1)  72(3)       -0.0252842624       -0.0000119082       -0.0357573467       -0.0000168407
         198         6(1)  73(3)       -0.0457240965        0.0007501745       -0.0646636374        0.0010609070
         199         6(1)  74(3)       -0.0692609122        0.0021644981       -0.0979497213        0.0030610626
         205         6(1)  80(3)        0.0328185684       -0.0021295734        0.0464124645       -0.0030116716
         232         7(1)  72(3)        0.0319958317        0.0002959489        0.0452489391        0.0004185350
         233         7(1)  73(3)        0.0258236074        0.0002352902        0.0365200958        0.0003327506
         234         7(1)  74(3)        0.0571301028       -0.0020271134        0.0807941662       -0.0028667712
         240         7(1)  80(3)       -0.0346948971        0.0039954848       -0.0490659940        0.0056504688
         267         8(1)  72(3)       -0.0715773659        0.0014598132       -0.1011206840        0.0020623462
         268         8(1)  73(3)       -0.2190486043        0.0013857717       -0.3094601824        0.0019577443
         269         8(1)  74(3)       -0.1887631109        0.0013333210       -0.2666744531        0.0018836448
         270         8(1)  75(3)       -0.0284069862        0.0002517996       -0.0401318746        0.0003557290
         271         8(1)  76(3)        0.0351194809       -0.0001658633        0.0496149291       -0.0002343229
         275         8(1)  80(3)        0.0821188501       -0.0011853964        0.1160131305       -0.0016746647
         276         8(1)  81(3)        0.0416027752       -0.0029356975        0.0587741814       -0.0041473969
         302         9(1)  72(3)       -0.0273355708       -0.0006318441       -0.0386372419       -0.0008930750
         303         9(1)  73(3)       -0.0911930428        0.0008577198       -0.1288960702        0.0012123371
         304         9(1)  74(3)       -0.0717122018       -0.0017252236       -0.1013610328       -0.0024385033
         310         9(1)  80(3)        0.0506335965       -0.0015834158        0.0715676482       -0.0022380662
         311         9(1)  81(3)        0.0228510011       -0.0005971350        0.0322985630       -0.0008440156
         338        10(1)  73(3)       -1.1756025734        0.6245822345       -0.0601182893        0.0319400589
         339        10(1)  74(3)       -0.4150800110        0.9284829928       -0.0212264763        0.0474810199
         341        10(1)  76(3)        1.4896262436       -0.6045623298        0.0761769185       -0.0309162755
         342        10(1)  77(3)       -0.6969150378        1.3439735002       -0.0356390338        0.0687284883
         345        10(1)  80(3)       -0.7362462364       -0.4262235524       -0.0376503635       -0.0217963378
         346        10(1)  81(3)        0.3713243445       -1.2820618232        0.0189888869       -0.0655624318
         347        10(1)  82(3)        0.8200512615       -1.2331404041        0.0419360080       -0.0630606748
         349        10(1)  84(3)       -0.4043847460        0.7983844299       -0.0206795389        0.0408280036
         376        11(1)  76(3)       -0.5536688313       -0.0550250904       -0.0341295696       -0.0033918880
         377        11(1)  77(3)        0.1889482541        0.7060457241        0.0116472560        0.0435224729
         380        11(1)  80(3)        0.4813233702       -0.5719857306        0.0296700095       -0.0352586704
         381        11(1)  81(3)        0.0531696033       -0.7124976111        0.0032775110       -0.0439201838
         382        11(1)  82(3)       -0.1852626344       -0.5442541878       -0.0114200649       -0.0335492268
         415        12(1)  80(3)        1.1022327896       -0.0664418746        0.0412863429       -0.0024887139
         443        49(2) 108(4)       -0.0859246507        0.0014403939       -0.1211775674        0.0020313545
         490        67(3)  11(1)       -0.0506538503       -0.0006801467       -0.0715672796       -0.0009609586
         491        67(3)  12(1)       -0.0267569745        0.0040373437       -0.0378268012        0.0057076632
         493        68(3)   9(1)        2.4498579537       -0.6316326441        0.1144353517       -0.0295042019
         494        68(3)  10(1)        0.0281789871       -0.0001794061        0.0398250433       -0.0002535525
         495        68(3)  11(1)        0.0701481768       -0.0064101864        0.0991102187       -0.0090567569
         569        67(3)  13(1)       -0.0253524506        0.0008776983       -0.0358537795        0.0012412529
         571        67(3)  15(1)        0.0237389535        0.0002584330        0.0335719500        0.0003654795
         572        67(3)  16(1)        0.0333839208       -0.0003652514        0.0472119935       -0.0005165434
         608        68(3)  16(1)       -0.0422657580        0.0008675371       -0.0597728082        0.0012268828
         641        69(3)  13(1)        0.0697533692       -0.0015380977        0.0986112003       -0.0021744277
         642        69(3)  14(1)        0.0222250914       -0.0000445260        0.0314198865       -0.0000629469
         643        69(3)  15(1)       -0.0764839390       -0.0003280603       -0.1081262901       -0.0004637829
         644        69(3)  16(1)       -0.0949083884        0.0012440511       -0.1341731620        0.0017587304
         645        69(3)  17(1)        0.0235860418       -0.0005830706        0.0333438788       -0.0008242942
         647        69(3)  19(1)        0.0253894650        0.0001880663        0.0358934006        0.0002658717
         677        70(3)  13(1)       -0.0364010506       -0.0001065424       -0.0514312729       -0.0001505344
         678        70(3)  14(1)       -0.0286854894        0.0005848881       -0.0405299081        0.0008263920
         679        70(3)  15(1)        0.0270586253        0.0005851756        0.0382313016        0.0008267983
         680        70(3)  16(1)        0.0264938678        0.0025868192        0.0374333521        0.0036549331
         750       107(4)  53(2)        0.0390889602       -0.0006100602        0.0550542016       -0.0008592293

      713 elements with absolute value ≤ 3.09D-02 not printed.

 The numbers in parenthesis give the orbital symmetry.

      Index(conf)                         Z operator          Y operator
      ----------                      --------------      --------------
       13817                            0.0523502807       -0.0059022802
       13819                            0.0579299333        0.0004809801
       13855                            0.0507978328       -0.0012065058
       13856                            0.0764490830       -0.0044393092
       13875                            0.0937655925       -0.0022466716
       13876                            0.1582494941       -0.0002800239
       13879                            0.0665668330       -0.0021416960
       13885                            0.0581811092       -0.0059246497
       13886                            0.0608682058       -0.0008331011
       13915                            0.1545704786       -0.0002269540
       13916                           -0.3884358524        0.0098543677
       13945                            0.0480979113       -0.0063480957
       13946                            0.0564128381       -0.0007352587
       14291                           -0.0529318050        0.0047176686
       14767                           -0.0431282883       -0.0003100030
       16195                           -0.1164595013        0.0001351738
       16255                            0.0524041156       -0.0051511910
       16256                            0.0603454176       -0.0014221752
       30475                           -0.0688670769        0.0000907116
       30535                            0.0501690516       -0.0068253939
       30536                            0.0551673491       -0.0007455441
      109261                            0.0529318050       -0.0047176686
      109263                            0.0431282883        0.0003100030
      109269                            0.1164595013       -0.0001351738
      109329                            0.0688670769       -0.0000907116
      109735                           -0.0523502807        0.0059022802
      110211                           -0.0579299333       -0.0004809801
      118779                           -0.0507978328        0.0012065058
      119017                           -0.0764490830        0.0044393092
      123539                           -0.0937655925        0.0022466716
      123549                           -0.0524041156        0.0051511910
      123609                           -0.0501690516        0.0068253939
      123777                           -0.1582494941        0.0002800239
      123787                           -0.0603454176        0.0014221752
      123847                           -0.0551673491        0.0007455441
      124491                           -0.0665668330        0.0021416960
      125919                           -0.0581811092        0.0059246497
      126157                           -0.0608682058        0.0008331011
      133059                           -0.1545704786        0.0002269540
      133297                            0.3884358524       -0.0098543677
      140199                           -0.0480979113        0.0063480957
      140437                           -0.0564128381        0.0007352587

   213598 elements with absolute value ≤ 3.88D-02 are not printed.

 The numbers in parenthesis give the configuration symmetry.


  Printout of coefficients in interval   0.2450E+00 to  0.7749E+00
  ==============================================================

 Coefficient of determinant     13916 is     -0.38843585 -3.88435852E-01
 alpha-string:     2           6     8  9 10 11
  beta-string:  1  2           6     8  9    11

 Coefficient of determinant    133297 is      0.38843585  3.88435852E-01
 alpha-string:  1  2           6     8  9    11
  beta-string:     2           6     8  9 10 11


  Printout of coefficients in interval   0.7749E-01 to  0.2450E+00
  ==============================================================

 Coefficient of determinant     13875 is      0.09376559  9.37655925E-02
 alpha-string:  1  2  3        6        9    11
  beta-string:  1  2           6     8  9    11

 Coefficient of determinant     13876 is      0.15824949  1.58249494E-01
 alpha-string:  1  2     4     6        9    11
  beta-string:  1  2           6     8  9    11

 Coefficient of determinant     13915 is      0.15457048  1.54570479E-01
 alpha-string:  1              6     8  9 10 11
  beta-string:  1  2           6     8  9    11

 Coefficient of determinant     16195 is     -0.11645950 -1.16459501E-01
 alpha-string:  1  2           6  7  8  9
  beta-string:  1  2              7  8  9    11

 Coefficient of determinant    109269 is      0.11645950  1.16459501E-01
 alpha-string:  1  2              7  8  9    11
  beta-string:  1  2           6  7  8  9

 Coefficient of determinant    123539 is     -0.09376559 -9.37655925E-02
 alpha-string:  1  2           6     8  9    11
  beta-string:  1  2  3        6        9    11

 Coefficient of determinant    123777 is     -0.15824949 -1.58249494E-01
 alpha-string:  1  2           6     8  9    11
  beta-string:  1  2     4     6        9    11

 Coefficient of determinant    133059 is     -0.15457048 -1.54570479E-01
 alpha-string:  1  2           6     8  9    11
  beta-string:  1              6     8  9 10 11


  Printout of coefficients in interval   0.3884E-01 to  0.7749E-01
  ==============================================================

 Coefficient of determinant     13817 is      0.05235028  5.23502807E-02
 alpha-string:     2  3        6  7  8  9
  beta-string:  1  2           6     8  9    11

 Coefficient of determinant     13819 is      0.05792993  5.79299333E-02
 alpha-string:     2     4     6  7  8  9
  beta-string:  1  2           6     8  9    11

 Coefficient of determinant     13855 is      0.05079783  5.07978328E-02
 alpha-string:  1  2  3        6     8       11
  beta-string:  1  2           6     8  9    11

 Coefficient of determinant     13856 is      0.07644908  7.64490830E-02
 alpha-string:  1  2     4     6     8       11
  beta-string:  1  2           6     8  9    11

 Coefficient of determinant     13879 is      0.06656683  6.65668330E-02
 alpha-string:  1  2        5  6        9    11
  beta-string:  1  2           6     8  9    11

 Coefficient of determinant     13885 is      0.05818111  5.81811092E-02
 alpha-string:  1  2  3           7     9    11
  beta-string:  1  2           6     8  9    11

 Coefficient of determinant     13886 is      0.06086821  6.08682058E-02
 alpha-string:  1  2     4        7     9    11
  beta-string:  1  2           6     8  9    11

 Coefficient of determinant     13945 is      0.04809791  4.80979113E-02
 alpha-string:  1  2  3        6        9       12
  beta-string:  1  2           6     8  9    11

 Coefficient of determinant     13946 is      0.05641284  5.64128381E-02
 alpha-string:  1  2     4     6        9       12
  beta-string:  1  2           6     8  9    11

 Coefficient of determinant     14291 is     -0.05293181 -5.29318050E-02
 alpha-string:  1  2           6  7  8  9
  beta-string:     2  3        6     8  9    11

 Coefficient of determinant     14767 is     -0.04312829 -4.31282883E-02
 alpha-string:  1  2           6  7  8  9
  beta-string:     2     4     6     8  9    11

 Coefficient of determinant     16255 is      0.05240412  5.24041156E-02
 alpha-string:  1  2  3        6        9    11
  beta-string:  1  2              7  8  9    11

 Coefficient of determinant     16256 is      0.06034542  6.03454176E-02
 alpha-string:  1  2     4     6        9    11
  beta-string:  1  2              7  8  9    11

 Coefficient of determinant     30475 is     -0.06886708 -6.88670769E-02
 alpha-string:  1  2           6  7  8  9
  beta-string:  1  2           6     8  9       12

 Coefficient of determinant     30535 is      0.05016905  5.01690516E-02
 alpha-string:  1  2  3        6        9    11
  beta-string:  1  2           6     8  9       12

 Coefficient of determinant     30536 is      0.05516735  5.51673491E-02
 alpha-string:  1  2     4     6        9    11
  beta-string:  1  2           6     8  9       12

 Coefficient of determinant    109261 is      0.05293181  5.29318050E-02
 alpha-string:     2  3        6     8  9    11
  beta-string:  1  2           6  7  8  9

 Coefficient of determinant    109263 is      0.04312829  4.31282883E-02
 alpha-string:     2     4     6     8  9    11
  beta-string:  1  2           6  7  8  9

 Coefficient of determinant    109329 is      0.06886708  6.88670769E-02
 alpha-string:  1  2           6     8  9       12
  beta-string:  1  2           6  7  8  9

 Coefficient of determinant    109735 is     -0.05235028 -5.23502807E-02
 alpha-string:  1  2           6     8  9    11
  beta-string:     2  3        6  7  8  9

 Coefficient of determinant    110211 is     -0.05792993 -5.79299333E-02
 alpha-string:  1  2           6     8  9    11
  beta-string:     2     4     6  7  8  9

 Coefficient of determinant    118779 is     -0.05079783 -5.07978328E-02
 alpha-string:  1  2           6     8  9    11
  beta-string:  1  2  3        6     8       11

 Coefficient of determinant    119017 is     -0.07644908 -7.64490830E-02
 alpha-string:  1  2           6     8  9    11
  beta-string:  1  2     4     6     8       11

 Coefficient of determinant    123549 is     -0.05240412 -5.24041156E-02
 alpha-string:  1  2              7  8  9    11
  beta-string:  1  2  3        6        9    11

 Coefficient of determinant    123609 is     -0.05016905 -5.01690516E-02
 alpha-string:  1  2           6     8  9       12
  beta-string:  1  2  3        6        9    11

 Coefficient of determinant    123787 is     -0.06034542 -6.03454176E-02
 alpha-string:  1  2              7  8  9    11
  beta-string:  1  2     4     6        9    11

 Coefficient of determinant    123847 is     -0.05516735 -5.51673491E-02
 alpha-string:  1  2           6     8  9       12
  beta-string:  1  2     4     6        9    11

 Coefficient of determinant    124491 is     -0.06656683 -6.65668330E-02
 alpha-string:  1  2           6     8  9    11
  beta-string:  1  2        5  6        9    11

 Coefficient of determinant    125919 is     -0.05818111 -5.81811092E-02
 alpha-string:  1  2           6     8  9    11
  beta-string:  1  2  3           7     9    11

 Coefficient of determinant    126157 is     -0.06086821 -6.08682058E-02
 alpha-string:  1  2           6     8  9    11
  beta-string:  1  2     4        7     9    11

 Coefficient of determinant    140199 is     -0.04809791 -4.80979113E-02
 alpha-string:  1  2           6     8  9    11
  beta-string:  1  2  3        6        9       12

 Coefficient of determinant    140437 is     -0.05641284 -5.64128381E-02
 alpha-string:  1  2           6     8  9    11
  beta-string:  1  2     4     6        9       12

 Norm of printed part of CI vector ..      0.55012606

  Magnitude of CI coefficients
  ============================

  ( Ranges are relative to norm of vector :  7.75E-01 )

  10- 1 to 10- 0        10    0.44434430E+00    0.44434430E+00
  10- 2 to 10- 1       188    0.14736156E+00    0.59170586E+00
  10- 3 to 10- 2      1604    0.80783809E-02    0.59978424E+00
  10- 4 to 10- 3      8118    0.68128744E-03    0.60046552E+00
  10- 5 to 10- 4     28360    0.24743117E-04    0.60049027E+00
  10- 6 to 10- 5     52850    0.59313136E-06    0.60049086E+00
  10- 7 to 10- 6     68710    0.91649469E-08    0.60049087E+00
  10- 8 to 10- 7     43582    0.71914494E-10    0.60049087E+00
  10- 9 to 10- 8      9010    0.18837504E-12    0.60049087E+00
  10-10 to 10- 9      1086    0.23452757E-15    0.60049087E+00
  10-11 to 10-10       110    0.26711928E-18    0.60049087E+00
  Number of coefficients less than 10^-11 times norm is            12


 Time used in polarization propagator calculation is    165.40 CPU seconds for symmetry 3

  Total CPU  time used in RESPONSE:  4 minutes 48 seconds
  Total wall time used in RESPONSE:  4 minutes 48 seconds


                   .-------------------------------------------.
                   | End of Dynamic Property Section (RESPONS) |
                   `-------------------------------------------'

  Total CPU  time used in DALTON:  5 minutes 56 seconds
  Total wall time used in DALTON:  5 minutes 56 seconds

 
     Date and time (Linux)  : Tue Aug  7 11:55:15 2018
     Host name              : s72p25.deic.sdu.dk                      
